
 Primary working directories    : /local
 Secondary working directories  : /local
 Wavefunction directory         : /local/
 Main file repository           : /local/

 SHA1      : b4a5b34a9e711420743f49e6833241d17c61fb3c
 NAME      : 2099.9.b4a5b34
 ARCHNAME  : linux/x86_64_openmp
 FC        : /cm/shared/languages/GCC-6.1/bin/gfortran
 BLASLIB   : -lblas
 id        : simonbennie

 Nodes     nprocs
 node35-034    1

 Using customized tuning parameters: mindgm=1; mindgv=20; mindgc=4; mindgr=1; noblas=0; minvec=7
 default implementation of scratch files=df  

 memory,500,m
 geomtyp=xyz
 nosym
 noorient
 geometry={
 C         -1.53233        0.02247        0.00000
 C         -0.00192        0.01421        0.00000
 O          0.37239        1.40356        0.00000
 H          1.34248        1.44036        0.00000
 H         -1.92991       -0.99819        0.00000
 H         -1.90797        0.54382       -0.88653
 H         -1.90797        0.54382        0.88653
 C          0.54303       -0.66466       -1.26580
 C          0.54303       -0.66466        1.26580
 H          0.17836       -0.14752       -2.15943
 H          0.17836       -0.14752        2.15943
 H          0.23752       -1.71600       -1.32280
 H          0.23752       -1.71600        1.32280
 H          1.64084       -0.63767       -1.28032
 H          1.64084       -0.63767        1.28032
 }
 basis={ default,qzvp }
 {ks,PW91,direct;wf,42,1,0}
 {ibba,bonds=1}

 Variables initialized (895), CPU time= 0.00 sec
 Commands  initialized (725), CPU time= 0.01 sec, 591 directives.
 Default parameters read. Elapsed time= 0.12 sec

 Checking input...
 Passed
1


                                         ***  PROGRAM SYSTEM MOLPRO  ***
                                       Copyright, TTI GmbH Stuttgart, 2015
                                    Version 2099.9 linked May 26 2017 16:03:21


 **********************************************************************************************************************************
 LABEL *                                                                                 
  64 bit serial version                                                                  DATE: 12-Jun-17          TIME: 16:45:39  
 **********************************************************************************************************************************

 SHA1:             b4a5b34a9e711420743f49e6833241d17c61fb3c
 **********************************************************************************************************************************
 SETTING GEOMTYP        =    XYZ

 Variable memory set to  500000000 words,  buffer space 

 ZSYMEL=NOSYM

 SETTING BASIS          =    QZVP


 Recomputing integrals since basis changed


 Using spherical harmonics

 Library entry C      S def2-QZVP            selected for orbital group  1
 Library entry C      P def2-QZVP            selected for orbital group  1
 Library entry C      D def2-QZVP            selected for orbital group  1
 Library entry C      F def2-QZVP            selected for orbital group  1
 Library entry C      G def2-QZVP            selected for orbital group  1
 Library entry O      S def2-QZVP            selected for orbital group  2
 Library entry O      P def2-QZVP            selected for orbital group  2
 Library entry O      D def2-QZVP            selected for orbital group  2
 Library entry O      F def2-QZVP            selected for orbital group  2
 Library entry O      G def2-QZVP            selected for orbital group  2
 Library entry H      S def2-QZVP            selected for orbital group  3
 Library entry H      P def2-QZVP            selected for orbital group  3
 Library entry H      D def2-QZVP            selected for orbital group  3
 Library entry H      F def2-QZVP            selected for orbital group  3


 PROGRAM * SEWARD (Integral evaluation for generally contracted gaussian basis sets)     Author: Roland Lindh, 1990

 Geometry written to block  1 of record 700


 Point group  C1  



 ATOMIC COORDINATES

 NR  ATOM    CHARGE       X              Y              Z

   1  C       6.00   -2.895684032    0.042462146    0.000000000
   2  C       6.00   -0.003628274    0.026853008    0.000000000
   3  O       8.00    0.703715112    2.652343999    0.000000000
   4  H       1.00    2.536919528    2.721885921    0.000000000
   5  H       1.00   -3.647001345   -1.886305720    0.000000000
   6  H       1.00   -3.605540754    1.027670861   -1.675298901
   7  H       1.00   -3.605540754    1.027670861    1.675298901
   8  C       6.00    1.026177977   -1.256025366   -2.392015328
   9  C       6.00    1.026177977   -1.256025366    2.392015328
  10  H       1.00    0.337051552   -0.278772398   -4.080731285
  11  H       1.00    0.337051552   -0.278772398    4.080731285
  12  H       1.00    0.448847749   -3.242770030   -2.499729718
  13  H       1.00    0.448847749   -3.242770030    2.499729718
  14  H       1.00    3.100738214   -1.205021658   -2.419454152
  15  H       1.00    3.100738214   -1.205021658    2.419454152

 Bond lengths in Bohr (Angstrom)

 1-2  2.892097881  1-5  2.069933136  1-6  2.069096224  1-7  2.069096224  2-3  2.719106031
     ( 1.530432290)     ( 1.095361444)     ( 1.094918569)     ( 1.094918569)     ( 1.438888946)

  2- 8  2.903104402   2- 9  2.903104402   3- 4  1.834522965   8-10  2.069222119   8-12  2.071730422
       ( 1.536256691)       ( 1.536256691)       ( 0.970787746)       ( 1.094985190)       ( 1.096312526)

  8-14  2.075368508   9-11  2.069222119   9-13  2.071730422   9-15  2.075368508
       ( 1.098237719)       ( 1.094985190)       ( 1.096312526)       ( 1.098237719)

 Bond angles

  1-2-3  104.76902697   1-2-8  110.92255387   1-2-9  110.92255387   2-1-5  110.97328220

  2- 1- 6  110.22090701   2- 1- 7  110.22090701   2- 3- 4  107.25071562   2- 8-10  110.21836376

  2- 8-12  111.57747468   2- 8-14  110.77023896   2- 9-11  110.21836376   2- 9-13  111.57747468

  2- 9-15  110.77023896   3- 2- 8  109.53648747   3- 2- 9  109.53648747   5- 1- 6  108.61190457

  5- 1- 7  108.61190457   6- 1- 7  108.12870271   8- 2- 9  110.96453384  10- 8-12  108.52192632

 10- 8-14  108.08997829  11- 9-13  108.52192632  11- 9-15  108.08997829  12- 8-14  107.54424578

 13- 9-15  107.54424578

 NUCLEAR CHARGE:                   42
 NUMBER OF PRIMITIVE AOS:         840
 NUMBER OF SYMMETRY AOS:          715
 NUMBER OF CONTRACTIONS:          585   ( 585A   )
 NUMBER OF CORE ORBITALS:           5   (   5A   )
 NUMBER OF VALENCE ORBITALS:       30   (  30A   )


 NUCLEAR REPULSION ENERGY  198.77359127


 Eigenvalues of metric

         1 0.447E-04 0.459E-04 0.470E-04 0.743E-04 0.823E-04 0.917E-04 0.943E-04 0.107E-03


 Contracted 2-electron integrals neglected if value below      1.0D-12
 AO integral compression algorithm  1   Integral accuracy      1.0D-12

     40752.906 MB (compressed) written to integral file ( 33.4%)


 NUMBER OF SORTED TWO-ELECTRON INTEGRALS:14689922715.     BUFFER LENGTH:  32768
 NUMBER OF SEGMENTS: 184  SEGMENT LENGTH:   79999773      RECORD LENGTH: 262144

 Memory used in sort:      80.29 MW

 SORT1 READ 15248138275. AND WROTE 10587813328. INTEGRALS IN  60679 RECORDS. CPU TIME:   190.50 SEC, REAL TIME:  5864.71 SEC
 SORT2 READ 10587813328. AND WROTE 14689922715. INTEGRALS IN 155460 RECORDS. CPU TIME:   321.13 SEC, REAL TIME:  5607.54 SEC

 FILE SIZES:   FILE 1: 40795.6 MBYTE,  FILE 4:127253.1 MBYTE,   TOTAL: 168048.8 MBYTE

 OPERATOR DM      FOR CENTER  0  COORDINATES:    0.000000    0.000000    0.000000


 **********************************************************************************************************************************
 DATASETS  * FILE   NREC   LENGTH (MB)   RECORD NAMES
              1      19    37754.71       500      610      700      900      950      970     1000      129      960     1100   
                                          VAR    BASINP    GEOM    SYMINP    ZMAT    AOBASIS   BASIS     P2S    ABASIS      S 
                                         1400     1410     1200     1210     1080     1600     1650     1300     1700   
                                           T        V       H0       H01     AOSYM     SMH    MOLCAS    ERIS     OPER   

 PROGRAMS   *        TOTAL       INT
 CPU TIMES  *      1178.97   1178.82
 REAL TIME  *     12543.67 SEC
 DISK USED  *       168.05 GB      
 **********************************************************************************************************************************

 Density functional group PW91=PW91X+PW91C
 Functional: PW91X(Automatically generated (new) PW91X)                        Gradient terms: 1
 Functional: PW91C(Automatically generated (new) PW91C)                        Gradient terms: 1
 Use grid at  1800.2

 Functional: PW91X                     Factor:  1.0000
 Functional: PW91C                     Factor:  1.0000

 Generated new metagrid on record  1800.2 with target accuracy 1.0D-06 and 58228 points in CPU time    1.7
 Computed new grid on record 1800.1 in CPU time    1.9
  469144 words reserved for DFT integration

 PROGRAM * RKS-SCF (Restricted closed shell Kohn-Sham)     Authors: W. Meyer, H.-J. Werner, P.J. Knowles, 1993

 NUMBER OF ELECTRONS:      21+   21-    SPACE SYMMETRY=1    SPIN SYMMETRY: Singlet 
 CONVERGENCE THRESHOLDS:    1.00E-05 (Density)    1.00E-06 (Energy)
 MAX. NUMBER OF ITERATIONS:       60
 INTERPOLATION TYPE:            DIIS
 INTERPOLATION STEPS:              2 (START)      1 (STEP)
 LEVEL SHIFTS:                  0.00 (CLOSED)  0.00 (OPEN) 



 Use fine grid record 1800.2 for energy threshold  1.0D-06
 Orbital guess generated from atomic densities. Full valence occupancy:   21

 Molecular orbital dump at record        2100.2

 Initial occupancy:  21

 ITERATION    DDIFF          GRAD             ENERGY        2-EL.EN.            DIPOLE MOMENTS         DIIS   ORB.
    1      0.000D+00      0.000D+00      -233.36159298    641.015350    0.69645   -0.78533    0.00000    0    start
    2      0.000D+00      0.524D-02      -232.68952209    586.255414   -0.73033    0.35625    0.00000    1    diag
    3      0.150D-01      0.902D-02      -233.66516767    624.367722    0.42925   -0.75864    0.00000    2    diag
    4      0.144D-01      0.137D-02      -233.68050613    622.074820    0.33092   -0.38584    0.00000    3    diag
    5      0.769D-03      0.548D-03      -233.68303857    621.764845    0.31711   -0.53199    0.00000    4    diag
    6      0.283D-03      0.179D-03      -233.68333463    622.000633    0.32439   -0.49727    0.00000    5    diag
    7      0.621D-04      0.547D-04      -233.68336080    621.986171    0.32885   -0.49635    0.00000    6    diag
    8      0.239D-04      0.741D-05      -233.68336141    622.005026    0.32693   -0.50197    0.00000    7    diag
    9      0.530D-05      0.249D-05      -233.68336138    621.998218    0.32814   -0.49819    0.00000    0    orth

 Final occupancy:  21

 !RKS STATE 1.1 Energy               -233.683361380034
 Nuclear energy                       198.77359127
 One-electron energy                 -709.51798052
 Two-electron energy                  310.99910896
 Density functional                   -33.93808109     PW91X=-32.48577583 PW91C= -1.45230526
 Virial quotient                       -1.00499980
 !RKS STATE 1.1 Dipole moment           0.32813809    -0.49819129     0.00000000
 Dipole moment /Debye                   0.83398921    -1.26619303     0.00000000

 Orbital energies:

         1.1          2.1          3.1          4.1          5.1          6.1          7.1          8.1          9.1         10.1
    -18.760223    -9.958529    -9.888834    -9.888833    -9.884172    -0.932632    -0.717195    -0.626924    -0.626247    -0.515885

        11.1         12.1         13.1         14.1         15.1         16.1         17.1         18.1         19.1         20.1
     -0.442222    -0.406705    -0.404029    -0.368687    -0.355320    -0.339282    -0.325693    -0.314862    -0.308377    -0.281648

        21.1         22.1         23.1
     -0.229153    -0.017148     0.018504

 HOMO     21.1    -0.229153 =      -6.2356eV
 LUMO     22.1    -0.017148 =      -0.4666eV
 LUMO-HOMO         0.212006 =       5.7690eV


 **********************************************************************************************************************************
 DATASETS  * FILE   NREC   LENGTH (MB)   RECORD NAMES
              1      20    37756.57       500      610      700      900      950      970     1000      129      960     1100   
                                          VAR    BASINP    GEOM    SYMINP    ZMAT    AOBASIS   BASIS     P2S    ABASIS      S 
                                         1400     1410     1200     1210     1080     1600     1650     1300     1700     1800   
                                           T        V       H0       H01     AOSYM     SMH    MOLCAS    ERIS     OPER     GRID   

              2       5        9.95       700     1000      520     1800     2100   
                                         GEOM     BASIS   MCVARS    GRID      RKS  

 PROGRAMS   *        TOTAL        KS       INT
 CPU TIMES  *      2197.85   1018.88   1178.82
 REAL TIME  *     18454.95 SEC
 DISK USED  *       168.05 GB      
 **********************************************************************************************************************************


 PROGRAM * Intrinsic Basis Bonding Analysis (IBBA)          Author: G. Knizia

 Molecular orbitals read from record     2100.2  Type=RKS/CANONICAL (state 1.1)
 Fock matrix read from record            2100.2  Type=RKS/TOTAL (state 1.1)
 Orbital energies read from record       2100.2  Type=RKS/CANONICAL (state 1.1)
 Density matrix read from record         2100.2  Type=RKS/CHARGE (state 1.1)

 Number of core orbitals:           5 (   5 )
 Number of closed-shell orbitals:  16 (  16 )

 Basis set MINAO-AUTO-PP generated.      Number of basis functions:   35 

 Polarized AO type:                A = (O Ot + (1-O)(1-Ot)) P12
 Orthogonalization method:         Symmetric (Loewdin)
 Localization functional:          L = sum[A,i] <i|n_A|i>^4 -> max

 Localization group 1:  21 orbitals, occupancy  2.000
 Iterative localization: IB/PM,    7 iter; Final gradient 0.15E-08

 Bond order analysis:       [THRPRINT= 0.020]

   CEN ATOM   CEN ATOM     WIBERG.BO      RENORM.BO
     1   C  -   2   C       0.996451       0.993114
     1   C  -   5   H       0.959673       0.986104
     1   C  -   6   H       0.954828       0.979724
     1   C  -   7   H       0.954828       0.979724

     2   C  -   1   C       0.996451       0.993114
     2   C  -   9   C       0.995066       0.973864
     2   C  -   8   C       0.995066       0.973864
     2   C  -   3   O       0.936575       0.944347

     3   O  -   2   C       0.936575       0.944347
     3   O  -   4   H       0.859388       0.973391
     3   O  -   8   C       0.030456       0.015577
     3   O  -   9   C       0.030456       0.015577

     4   H  -   3   O       0.859388       0.973391

     5   H  -   1   C       0.959673       0.986104

     6   H  -   1   C       0.954828       0.979724

     7   H  -   1   C       0.954828       0.979724

     8   C  -   2   C       0.995066       0.973864
     8   C  -  14   H       0.959059       0.980581
     8   C  -  10   H       0.955401       0.979544
     8   C  -  12   H       0.954765       0.978882
     8   C  -   3   O       0.030456       0.015577

     9   C  -   2   C       0.995066       0.973864
     9   C  -  15   H       0.959059       0.980581
     9   C  -  11   H       0.955401       0.979544
     9   C  -  13   H       0.954765       0.978882
     9   C  -   3   O       0.030456       0.015577

    10   H  -   8   C       0.955401       0.979544

    11   H  -   9   C       0.955401       0.979544

    12   H  -   8   C       0.954765       0.978882

    13   H  -   9   C       0.954765       0.978882

    14   H  -   8   C       0.959059       0.980581

    15   H  -   9   C       0.959059       0.980581


 Valency analysis:

   CEN ATOM   TOT.VALENCE
     1   C       3.931131
     2   C       3.934212
     3   O       1.931693
     4   H       0.881083
     5   H       0.979934
     6   H       0.977410
     7   H       0.977410
     8   C       3.933792
     9   C       3.933792
    10   H       0.977452
    11   H       0.977452
    12   H       0.979303
    13   H       0.979303
    14   H       0.981612
    15   H       0.981612

 Total charge composition:

   CEN ATOM         s          p       ELECTRONS ->P.CHARGE
     1   C       3.04634    3.38781      6.43415   -0.43415
     2   C       2.94045    2.81231      5.75276    0.24724
     3   O       3.65239    4.91113      8.56351   -0.56351
     4   H       0.65516                 0.65516    0.34484
     5   H       0.85835                 0.85835    0.14165
     6   H       0.84970                 0.84970    0.15030
     7   H       0.84970                 0.84970    0.15030
     8   C       3.05333    3.39463      6.44797   -0.44797
     9   C       3.05333    3.39463      6.44797   -0.44797
    10   H       0.84984                 0.84984    0.15016
    11   H       0.84984                 0.84984    0.15016
    12   H       0.85613                 0.85613    0.14387
    13   H       0.85613                 0.85613    0.14387
    14   H       0.86440                 0.86440    0.13560
    15   H       0.86440                 0.86440    0.13560

 Total charge composition, AO contributions:

   CEN ATOM SHL      SPHERICAL COMPONENTS
     1   C  1s       1.99138
     1   C  2s       1.05496
     1   C  2p       1.04035    1.16750    1.17996

     2   C  1s       1.99300
     2   C  2s       0.94745
     2   C  2p       1.00833    0.79238    1.01160

     3   O  1s       1.99721
     3   O  2s       1.65518
     3   O  2p       1.47333    1.48652    1.95128

     4   H  1s       0.65516

     5   H  1s       0.85835

     6   H  1s       0.84970

     7   H  1s       0.84970

     8   C  1s       1.99148
     8   C  2s       1.06185
     8   C  2p       1.14930    1.14852    1.09681

     9   C  1s       1.99148
     9   C  2s       1.06185
     9   C  2p       1.14930    1.14852    1.09681

    10   H  1s       0.84984

    11   H  1s       0.84984

    12   H  1s       0.85613

    13   H  1s       0.85613

    14   H  1s       0.86440

    15   H  1s       0.86440

 Summary of localized orbital composition:   [THRPRINT= 0.020]

   ORB  GRP  ORB.ENERGY      CENTERS/CHARGES
     1   1   -18.606075      O  3   2.000
     2   1    -9.869029      C  2   2.000
     3   1    -9.776519      C  8   2.000
     4   1    -9.776519      C  9   2.000
     5   1    -9.771098      C  1   2.000
     6   1    -0.700166      O  3   1.348   H  4   0.642
     7   1    -0.658622      O  3   1.280   C  2   0.700
     8   1    -0.522640      C  8   1.007   C  2   0.977
     9   1    -0.522640      C  9   1.007   C  2   0.977
    10   1    -0.522359      C  1   0.990   C  2   0.985   (other: 0.025)
    11   1    -0.515236      O  3   1.980
    12   1    -0.457406      C  9   1.139   H 13   0.845
    13   1    -0.457406      C  8   1.139   H 12   0.845
    14   1    -0.455914      C  8   1.131   H 14   0.856
    15   1    -0.455914      C  9   1.131   H 15   0.856
    16   1    -0.453531      C  1   1.134   H  5   0.851
    17   1    -0.451617      C  9   1.148   H 11   0.841
    18   1    -0.451617      C  8   1.148   H 10   0.841
    19   1    -0.447377      C  1   1.147   H  6   0.841
    20   1    -0.447377      C  1   1.147   H  7   0.841
    21   1    -0.256389      O  3   1.951   (other: 0.049)

 Localized orbitals saved to record      2100.2  (orbital set 2)


 **********************************************************************************************************************************
 DATASETS  * FILE   NREC   LENGTH (MB)   RECORD NAMES
              1      20    37756.57       500      610      700      900      950      970     1000      129      960     1100   
                                          VAR    BASINP    GEOM    SYMINP    ZMAT    AOBASIS   BASIS     P2S    ABASIS      S 
                                         1400     1410     1200     1210     1080     1600     1650     1300     1700     1800   
                                           T        V       H0       H01     AOSYM     SMH    MOLCAS    ERIS     OPER     GRID   

              2       5       12.70       700     1000      520     1800     2100   
                                         GEOM     BASIS   MCVARS    GRID      RKS  

 PROGRAMS   *        TOTAL      IBBA        KS       INT
 CPU TIMES  *      2198.31      0.46   1018.88   1178.82
 REAL TIME  *     18455.63 SEC
 DISK USED  *       168.05 GB      
 **********************************************************************************************************************************
 Molecular orbitals read from record     2100.2  Type=RKS/LOCAL(IBO)  
 Occupation numbers read from record     2100.2  Type=RKS/LOCAL(IBO)  
 Orbital energies read from record       2100.2  Type=RKS/LOCAL(IBO)  
 Redundancy group numbers read from rec  2100.2  Type=RKS/LOCAL(IBO)  

 IBBA/QZVP energy=      0.000000000000

        KS-SCF  
   -233.68336138
 **********************************************************************************************************************************
 Molpro calculation terminated
