
 Primary working directories    : /local
 Secondary working directories  : /local
 Wavefunction directory         : /local/
 Main file repository           : /local/

 SHA1      : b4a5b34a9e711420743f49e6833241d17c61fb3c
 NAME      : 2099.9.b4a5b34
 ARCHNAME  : linux/x86_64_openmp
 FC        : /cm/shared/languages/GCC-6.1/bin/gfortran
 BLASLIB   : -lblas
 id        : simonbennie

 Nodes     nprocs
 node47-022    1

 Using customized tuning parameters: mindgm=1; mindgv=20; mindgc=4; mindgr=1; noblas=0; minvec=7
 default implementation of scratch files=df  

 memory,500,m
 geomtyp=xyz
 nosym
 noorient
 geometry={
 C         -1.53233        0.02247        0.00000
 C         -0.00192        0.01421        0.00000
 O          0.37239        1.40356        0.00000
 H          1.34248        1.44036        0.00000
 H         -1.92991       -0.99819        0.00000
 H         -1.90797        0.54382       -0.88653
 H         -1.90797        0.54382        0.88653
 C          0.54303       -0.66466       -1.26580
 C          0.54303       -0.66466        1.26580
 H          0.17836       -0.14752       -2.15943
 H          0.17836       -0.14752        2.15943
 H          0.23752       -1.71600       -1.32280
 H          0.23752       -1.71600        1.32280
 H          1.64084       -0.63767       -1.28032
 H          1.64084       -0.63767        1.28032
 }
 basis={ default,qzvp }
 {uks,SOGGA11,direct;wf,42,1,0}
 {ibba,bonds=1}

 Variables initialized (895), CPU time= 0.01 sec
 Commands  initialized (725), CPU time= 0.01 sec, 591 directives.
 Default parameters read. Elapsed time= 0.08 sec

 Checking input...
 Passed
1


                                         ***  PROGRAM SYSTEM MOLPRO  ***
                                       Copyright, TTI GmbH Stuttgart, 2015
                                    Version 2099.9 linked May 26 2017 16:03:21


 **********************************************************************************************************************************
 LABEL *                                                                                 
  64 bit serial version                                                                  DATE: 12-Jun-17          TIME: 16:31:39  
 **********************************************************************************************************************************

 SHA1:             b4a5b34a9e711420743f49e6833241d17c61fb3c
 **********************************************************************************************************************************
 SETTING GEOMTYP        =    XYZ

 Variable memory set to  500000000 words,  buffer space 

 ZSYMEL=NOSYM

 SETTING BASIS          =    QZVP


 Recomputing integrals since basis changed


 Using spherical harmonics

 Library entry C      S def2-QZVP            selected for orbital group  1
 Library entry C      P def2-QZVP            selected for orbital group  1
 Library entry C      D def2-QZVP            selected for orbital group  1
 Library entry C      F def2-QZVP            selected for orbital group  1
 Library entry C      G def2-QZVP            selected for orbital group  1
 Library entry O      S def2-QZVP            selected for orbital group  2
 Library entry O      P def2-QZVP            selected for orbital group  2
 Library entry O      D def2-QZVP            selected for orbital group  2
 Library entry O      F def2-QZVP            selected for orbital group  2
 Library entry O      G def2-QZVP            selected for orbital group  2
 Library entry H      S def2-QZVP            selected for orbital group  3
 Library entry H      P def2-QZVP            selected for orbital group  3
 Library entry H      D def2-QZVP            selected for orbital group  3
 Library entry H      F def2-QZVP            selected for orbital group  3


 PROGRAM * SEWARD (Integral evaluation for generally contracted gaussian basis sets)     Author: Roland Lindh, 1990

 Geometry written to block  1 of record 700


 Point group  C1  



 ATOMIC COORDINATES

 NR  ATOM    CHARGE       X              Y              Z

   1  C       6.00   -2.895684032    0.042462146    0.000000000
   2  C       6.00   -0.003628274    0.026853008    0.000000000
   3  O       8.00    0.703715112    2.652343999    0.000000000
   4  H       1.00    2.536919528    2.721885921    0.000000000
   5  H       1.00   -3.647001345   -1.886305720    0.000000000
   6  H       1.00   -3.605540754    1.027670861   -1.675298901
   7  H       1.00   -3.605540754    1.027670861    1.675298901
   8  C       6.00    1.026177977   -1.256025366   -2.392015328
   9  C       6.00    1.026177977   -1.256025366    2.392015328
  10  H       1.00    0.337051552   -0.278772398   -4.080731285
  11  H       1.00    0.337051552   -0.278772398    4.080731285
  12  H       1.00    0.448847749   -3.242770030   -2.499729718
  13  H       1.00    0.448847749   -3.242770030    2.499729718
  14  H       1.00    3.100738214   -1.205021658   -2.419454152
  15  H       1.00    3.100738214   -1.205021658    2.419454152

 Bond lengths in Bohr (Angstrom)

 1-2  2.892097881  1-5  2.069933136  1-6  2.069096224  1-7  2.069096224  2-3  2.719106031
     ( 1.530432290)     ( 1.095361444)     ( 1.094918569)     ( 1.094918569)     ( 1.438888946)

  2- 8  2.903104402   2- 9  2.903104402   3- 4  1.834522965   8-10  2.069222119   8-12  2.071730422
       ( 1.536256691)       ( 1.536256691)       ( 0.970787746)       ( 1.094985190)       ( 1.096312526)

  8-14  2.075368508   9-11  2.069222119   9-13  2.071730422   9-15  2.075368508
       ( 1.098237719)       ( 1.094985190)       ( 1.096312526)       ( 1.098237719)

 Bond angles

  1-2-3  104.76902697   1-2-8  110.92255387   1-2-9  110.92255387   2-1-5  110.97328220

  2- 1- 6  110.22090701   2- 1- 7  110.22090701   2- 3- 4  107.25071562   2- 8-10  110.21836376

  2- 8-12  111.57747468   2- 8-14  110.77023896   2- 9-11  110.21836376   2- 9-13  111.57747468

  2- 9-15  110.77023896   3- 2- 8  109.53648747   3- 2- 9  109.53648747   5- 1- 6  108.61190457

  5- 1- 7  108.61190457   6- 1- 7  108.12870271   8- 2- 9  110.96453384  10- 8-12  108.52192632

 10- 8-14  108.08997829  11- 9-13  108.52192632  11- 9-15  108.08997829  12- 8-14  107.54424578

 13- 9-15  107.54424578

 NUCLEAR CHARGE:                   42
 NUMBER OF PRIMITIVE AOS:         840
 NUMBER OF SYMMETRY AOS:          715
 NUMBER OF CONTRACTIONS:          585   ( 585A   )
 NUMBER OF CORE ORBITALS:           5   (   5A   )
 NUMBER OF VALENCE ORBITALS:       30   (  30A   )


 NUCLEAR REPULSION ENERGY  198.77359127


 Eigenvalues of metric

         1 0.447E-04 0.459E-04 0.470E-04 0.743E-04 0.823E-04 0.917E-04 0.943E-04 0.107E-03


 Contracted 2-electron integrals neglected if value below      1.0D-12
 AO integral compression algorithm  1   Integral accuracy      1.0D-12

     40752.906 MB (compressed) written to integral file ( 33.4%)


 NUMBER OF SORTED TWO-ELECTRON INTEGRALS:14689922715.     BUFFER LENGTH:  32768
 NUMBER OF SEGMENTS: 184  SEGMENT LENGTH:   79999773      RECORD LENGTH: 262144

 Memory used in sort:      80.29 MW

 SORT1 READ 15248138275. AND WROTE 10587813328. INTEGRALS IN  60679 RECORDS. CPU TIME:   178.66 SEC, REAL TIME:  1818.27 SEC
 SORT2 READ 10587813328. AND WROTE 14689922715. INTEGRALS IN 155460 RECORDS. CPU TIME:   273.70 SEC, REAL TIME:  2186.25 SEC

 FILE SIZES:   FILE 1: 40795.6 MBYTE,  FILE 4:127253.1 MBYTE,   TOTAL: 168048.8 MBYTE

 OPERATOR DM      FOR CENTER  0  COORDINATES:    0.000000    0.000000    0.000000


 **********************************************************************************************************************************
 DATASETS  * FILE   NREC   LENGTH (MB)   RECORD NAMES
              1      19    37754.71       500      610      700      900      950      970     1000      129      960     1100   
                                          VAR    BASINP    GEOM    SYMINP    ZMAT    AOBASIS   BASIS     P2S    ABASIS      S 
                                         1400     1410     1200     1210     1080     1600     1650     1300     1700   
                                           T        V       H0       H01     AOSYM     SMH    MOLCAS    ERIS     OPER   

 PROGRAMS   *        TOTAL       INT
 CPU TIMES  *      1085.89   1085.74
 REAL TIME  *      4751.98 SEC
 DISK USED  *       168.05 GB      
 **********************************************************************************************************************************

 Density functional group SOGGA11=XC-SOGGA11
 Functional: XC-SOGGA11(via MFM 1.6)                                           Gradient terms: 1
 Use grid at  1800.2

 Functional: XC-SOGGA11                Factor:  1.0000

 Generated new metagrid on record  1800.2 with target accuracy 1.0D-06 and 58228 points in CPU time    1.6
 Computed new grid on record 1800.1 in CPU time    1.8
  469144 words reserved for DFT integration

 PROGRAM * UKS-SCF (Unrestricted Kohn-Sham)     Authors: W. Meyer, H.-J. Werner, P.J. Knowles, 1993

 NUMBER OF ELECTRONS:      21+   21-    SPACE SYMMETRY=1    SPIN SYMMETRY: Singlet 
 CONVERGENCE THRESHOLDS:    1.00E-05 (Density)    1.00E-06 (Energy)
 MAX. NUMBER OF ITERATIONS:       60
 INTERPOLATION TYPE:            DIIS
 INTERPOLATION STEPS:              2 (START)      1 (STEP)
 LEVEL SHIFTS:                 -0.20 (ALPHA)  -0.20 (BETA) 



 Use fine grid record 1800.2 for energy threshold  1.0D-06
 Orbital guess generated from atomic densities. Full valence occupancy:   21

 Molecular orbital dump at record        2200.2

 Initial alpha occupation  21
 Initial beta  occupation  21

 ITERATION    DDIFF          GRAD             ENERGY        2-EL.EN.            DIPOLE MOMENTS         DIIS
    1      0.000D+00      0.000D+00      -233.44053944    642.249983    0.69409   -0.79849    0.00000    0
    2      0.104D-01      0.163D-02      -233.64387310    612.605907    0.15825   -0.42772    0.00000    1
    3      0.776D-02      0.116D-02      -233.78959790    623.077549    0.35894   -0.58312    0.00000    2
    4      0.277D-02      0.289D-03      -233.79665700    623.006945    0.34256   -0.53471    0.00000    3
    5      0.103D-01      0.188D-03      -233.80462463    623.093739    0.35050   -0.54325    0.00000    4
    6      0.133D-01      0.123D-03      -233.80986659    622.198787    0.35289   -0.48336    0.00000    5
    7      0.212D-02      0.139D-03      -233.81205984    622.283059    0.35207   -0.48933    0.00000    6
    8      0.533D-02      0.979D-04      -233.81532931    622.285920    0.36370   -0.44914   -0.00000    7
    9      0.459D-02      0.356D-04      -233.81570983    622.166998    0.36135   -0.44496   -0.00000    8
   10      0.280D-02      0.283D-04      -233.81577139    622.022497    0.36683   -0.42406   -0.00000    9
   11      0.608D-02      0.429D-04      -233.81561051    622.365703    0.36393   -0.44836    0.00000    9
   12      0.463D-02      0.453D-04      -233.81585474    622.033091    0.36777   -0.42366    0.00000    9
   13      0.202D-02      0.341D-04      -233.81597381    622.122186    0.36608   -0.43054    0.00000    9
   14      0.710D-03      0.762D-05      -233.81598123    622.127730    0.36586   -0.43155    0.00000    9
   15      0.413D-03      0.266D-05      -233.81598261    622.129852    0.36540   -0.43129    0.00000    9
   16      0.109D-03      0.110D-05      -233.81598277    622.130292    0.36541   -0.43175   -0.00000    9
   17      0.316D-04      0.637D-06      -233.81598284    622.130145    0.36510   -0.43169   -0.00000    9
   18      0.242D-04      0.254D-06      -233.81598286    622.131037    0.36500   -0.43189    0.00000    9
   19      0.675D-05      0.141D-06      -233.81598286    622.130269    0.36491   -0.43190    0.00000    9
   20      0.784D-05      0.921D-07      -233.81598286    622.130442    0.36490   -0.43192    0.00000    9

 Final alpha occupancy:  21
 Final beta  occupancy:  21

 !UKS STATE 1.1 Energy               -233.815982863960
 Nuclear energy                       198.77359127
 One-electron energy                 -709.56766318
 Two-electron energy                  311.06522106
 Density functional                   -34.08713201     XC-SOGGA11=-34.08713201
 Virial quotient                       -1.00752992
 !UKS STATE 1.1 Dipole moment           0.36489501    -0.43191758     0.00000000
 Dipole moment /Debye                   0.92740987    -1.09775308     0.00000000

 Orbital energies for positive spin:

         1.1          2.1          3.1          4.1          5.1          6.1          7.1          8.1          9.1         10.1
    -18.771345    -9.977739    -9.901108    -9.901107    -9.896275    -0.929782    -0.719356    -0.629300    -0.628647    -0.519086

        11.1         12.1         13.1         14.1         15.1         16.1         17.1         18.1         19.1         20.1
     -0.447073    -0.411761    -0.409708    -0.372687    -0.360248    -0.344478    -0.331930    -0.320320    -0.314756    -0.287083

        21.1         22.1         23.1
     -0.231865    -0.066555    -0.032373

 Orbital energies for negative spin:

         1.1          2.1          3.1          4.1          5.1          6.1          7.1          8.1          9.1         10.1
    -18.771345    -9.977739    -9.901108    -9.901107    -9.896275    -0.929782    -0.719356    -0.629300    -0.628647    -0.519086

        11.1         12.1         13.1         14.1         15.1         16.1         17.1         18.1         19.1         20.1
     -0.447072    -0.411761    -0.409708    -0.372687    -0.360248    -0.344478    -0.331930    -0.320320    -0.314755    -0.287083

        21.1         22.1         23.1
     -0.231864    -0.066560    -0.032381

 HOMO    -21.1    -0.231864 =      -6.3093eV
 LUMO    -22.1    -0.066560 =      -1.8112eV
 LUMO-HOMO         0.165305 =       4.4982eV

 EXPECTATION VALUE OF S**2:             0.00000000

 Occupation number threshold for canonical orbitals:  1.999000 (occupied),  0.001000 (virtual)

 Number of pseudo-canonical orbitals per symmetry:   21
 Number of active natural orbitals per symmetry:      0

 Natural orbitals saved to record    2200.2 (Orbital set 3)

 Orbital spaces for UNO-CAS (Min. occupation: 0.020  Max. occupation: 1.980):

 Closed:       21
 Active:        0


 **********************************************************************************************************************************
 DATASETS  * FILE   NREC   LENGTH (MB)   RECORD NAMES
              1      20    37756.57       500      610      700      900      950      970     1000      129      960     1100   
                                          VAR    BASINP    GEOM    SYMINP    ZMAT    AOBASIS   BASIS     P2S    ABASIS      S 
                                         1400     1410     1200     1210     1080     1600     1650     1300     1700     1800   
                                           T        V       H0       H01     AOSYM     SMH    MOLCAS    ERIS     OPER     GRID   

              2       5       16.83       700     1000      520     1800     2200   
                                         GEOM     BASIS   MCVARS    GRID      UKS  

 PROGRAMS   *        TOTAL       UKS       INT
 CPU TIMES  *      3370.90   2285.01   1085.74
 REAL TIME  *      7302.38 SEC
 DISK USED  *       168.05 GB      
 **********************************************************************************************************************************


 PROGRAM * Intrinsic Basis Bonding Analysis (IBBA)          Author: G. Knizia

 Molecular orbitals read from record     2200.2  Type=UKS/ALPHA (state 1.1)
 Fock matrix read from record            2200.2  Type=UKS/TOTAL (state 1.1)
 Orbital energies read from record       2200.2  Type=UKS/ALPHA (state 1.1)
 Density matrix read from record         2200.2  Type=UKS/CHARGE (state 1.1)

 Number of core orbitals:           5 (   5 )
 Number of closed-shell orbitals:  16 (  16 )

 Basis set MINAO-AUTO-PP generated.      Number of basis functions:   35 

 Polarized AO type:                A = (O Ot + (1-O)(1-Ot)) P12
 Orthogonalization method:         Symmetric (Loewdin)
 Localization functional:          L = sum[A,i] <i|n_A|i>^4 -> max

 Localization group 1:  21 orbitals, occupancy  2.000
 Iterative localization: IB/PM,    7 iter; Final gradient 0.57E-08

 Bond order analysis:       [THRPRINT= 0.020]

   CEN ATOM   CEN ATOM     WIBERG.BO      RENORM.BO
     1   C  -   2   C       0.995766       0.992012
     1   C  -   5   H       0.957843       0.986249
     1   C  -   6   H       0.951997       0.978781
     1   C  -   7   H       0.951997       0.978781

     2   C  -   1   C       0.995766       0.992012
     2   C  -   9   C       0.994124       0.972290
     2   C  -   8   C       0.994124       0.972290
     2   C  -   3   O       0.942508       0.946938

     3   O  -   2   C       0.942508       0.946938
     3   O  -   4   H       0.853016       0.974481
     3   O  -   9   C       0.031064       0.015840
     3   O  -   8   C       0.031064       0.015840

     4   H  -   3   O       0.853016       0.974481

     5   H  -   1   C       0.957843       0.986249

     6   H  -   1   C       0.951997       0.978781

     7   H  -   1   C       0.951997       0.978781

     8   C  -   2   C       0.994124       0.972290
     8   C  -  14   H       0.956516       0.980036
     8   C  -  12   H       0.952522       0.978365
     8   C  -  10   H       0.952442       0.978396
     8   C  -   3   O       0.031064       0.015840

     9   C  -   2   C       0.994124       0.972290
     9   C  -  15   H       0.956516       0.980036
     9   C  -  13   H       0.952522       0.978365
     9   C  -  11   H       0.952442       0.978396
     9   C  -   3   O       0.031064       0.015840

    10   H  -   8   C       0.952442       0.978396

    11   H  -   9   C       0.952442       0.978396

    12   H  -   8   C       0.952522       0.978365

    13   H  -   9   C       0.952522       0.978365

    14   H  -   8   C       0.956516       0.980036

    15   H  -   9   C       0.956516       0.980036


 Valency analysis:

   CEN ATOM   TOT.VALENCE
     1   C       3.924158
     2   C       3.936999
     3   O       1.933328
     4   H       0.873765
     5   H       0.978145
     6   H       0.975615
     7   H       0.975615
     8   C       3.926761
     9   C       3.926761
    10   H       0.975638
    11   H       0.975638
    12   H       0.977562
    13   H       0.977562
    14   H       0.979702
    15   H       0.979702

 Total charge composition:

   CEN ATOM         s          p       ELECTRONS ->P.CHARGE
     1   C       3.04508    3.40663      6.45171   -0.45171
     2   C       2.93253    2.83022      5.76275    0.23725
     3   O       3.64557    4.91791      8.56349   -0.56349
     4   H       0.64470                 0.64470    0.35530
     5   H       0.85217                 0.85217    0.14783
     6   H       0.84384                 0.84384    0.15616
     7   H       0.84384                 0.84384    0.15616
     8   C       3.05292    3.41418      6.46710   -0.46710
     9   C       3.05292    3.41418      6.46710   -0.46710
    10   H       0.84392                 0.84392    0.15608
    11   H       0.84392                 0.84392    0.15608
    12   H       0.85021                 0.85021    0.14979
    13   H       0.85021                 0.85021    0.14979
    14   H       0.85753                 0.85753    0.14247
    15   H       0.85753                 0.85753    0.14247

 Total charge composition, AO contributions:

   CEN ATOM SHL      SPHERICAL COMPONENTS
     1   C  1s       1.99164
     1   C  2s       1.05344
     1   C  2p       1.03902    1.17781    1.18980

     2   C  1s       1.99322
     2   C  2s       0.93931
     2   C  2p       1.01382    0.80029    1.01611

     3   O  1s       1.99727
     3   O  2s       1.64830
     3   O  2p       1.48598    1.48228    1.94965

     4   H  1s       0.64470

     5   H  1s       0.85217

     6   H  1s       0.84384

     7   H  1s       0.84384

     8   C  1s       1.99173
     8   C  2s       1.06118
     8   C  2p       1.15845    1.15677    1.09895

     9   C  1s       1.99173
     9   C  2s       1.06118
     9   C  2p       1.15845    1.15677    1.09895

    10   H  1s       0.84392

    11   H  1s       0.84392

    12   H  1s       0.85021

    13   H  1s       0.85021

    14   H  1s       0.85753

    15   H  1s       0.85753

 Summary of localized orbital composition:   [THRPRINT= 0.020]

   ORB  GRP  ORB.ENERGY      CENTERS/CHARGES
     1   1   -18.619905      O  3   2.000
     2   1    -9.888924      C  2   2.000
     3   1    -9.788986      C  8   2.000
     4   1    -9.788986      C  9   2.000
     5   1    -9.783447      C  1   2.000
     6   1    -0.706204      O  3   1.358   H  4   0.632
     7   1    -0.662816      O  3   1.272   C  2   0.708
     8   1    -0.530315      C  8   1.006   C  2   0.977
     9   1    -0.530315      C  9   1.006   C  2   0.977
    10   1    -0.529773      C  1   0.988   C  2   0.985   (other: 0.026)
    11   1    -0.505702      O  3   1.980   (other: 0.020)
    12   1    -0.461026      C  9   1.146   H 13   0.839
    13   1    -0.461026      C  8   1.146   H 12   0.839
    14   1    -0.460000      C  9   1.138   H 15   0.849
    15   1    -0.460000      C  8   1.138   H 14   0.849
    16   1    -0.457294      C  1   1.141   H  5   0.844
    17   1    -0.455518      C  8   1.154   H 10   0.834
    18   1    -0.455518      C  9   1.154   H 11   0.834
    19   1    -0.451314      C  1   1.153   H  7   0.834
    20   1    -0.451314      C  1   1.153   H  6   0.834
    21   1    -0.257233      O  3   1.950   (other: 0.050)

 Localized orbitals saved to record      2200.2  (orbital set 4)


 **********************************************************************************************************************************
 DATASETS  * FILE   NREC   LENGTH (MB)   RECORD NAMES
              1      20    37756.57       500      610      700      900      950      970     1000      129      960     1100   
                                          VAR    BASINP    GEOM    SYMINP    ZMAT    AOBASIS   BASIS     P2S    ABASIS      S 
                                         1400     1410     1200     1210     1080     1600     1650     1300     1700     1800   
                                           T        V       H0       H01     AOSYM     SMH    MOLCAS    ERIS     OPER     GRID   

              2       5       19.57       700     1000      520     1800     2200   
                                         GEOM     BASIS   MCVARS    GRID      UKS  

 PROGRAMS   *        TOTAL      IBBA       UKS       INT
 CPU TIMES  *      3371.35      0.45   2285.01   1085.74
 REAL TIME  *      7302.96 SEC
 DISK USED  *       168.05 GB      
 **********************************************************************************************************************************
 Molecular orbitals read from record     2200.2  Type=UKS/LOCAL(IBO)  
 Occupation numbers read from record     2200.2  Type=UKS/LOCAL(IBO)  
 Orbital energies read from record       2200.2  Type=UKS/LOCAL(IBO)  
 Redundancy group numbers read from rec  2200.2  Type=UKS/BETA (state 1.1)

 IBBA/QZVP energy=      0.000000000000

        UKS-SCF 
   -233.81598286
 **********************************************************************************************************************************
 Molpro calculation terminated
