
 Primary working directories    : /tmp/sb13343
 Secondary working directories  : /tmp/sb13343
 Wavefunction directory         : /panfs/panasas01/chem/sb13343/wfu/
 Main file repository           : /tmp/sb13343/

 SHA1      : b4a5b34a9e711420743f49e6833241d17c61fb3c
 NAME      : 2099.9.b4a5b34
 ARCHNAME  : linux/x86_64_openmp
 FC        : /cm/shared/languages/GCC-6.1/bin/gfortran
 BLASLIB   : -lblas
 id        : simonbennie

 Nodes     nprocs
 node32-036    1

 Using customized tuning parameters: mindgm=1; mindgv=20; mindgc=4; mindgr=1; noblas=0; minvec=7
 default implementation of scratch files=df  

 memory,500,m
 geomtyp=xyz
 nosym
 noorient
 geometry={
 C          0.00000        0.00000        0.00000
 H          0.00000        0.00000        1.10056
 C          1.46209        0.00000       -0.46855
 C         -0.73105       -1.26621       -0.46855
 C         -0.73105        1.26621       -0.46855
 H          1.52118        0.00000       -1.56505
 H         -0.76059       -1.31738       -1.56505
 H         -0.76059        1.31738       -1.56505
 H          1.99755        0.88622       -0.10723
 H          1.99755       -0.88622       -0.10723
 H         -0.23129       -2.17304       -0.10723
 H         -1.76626       -1.28682       -0.10723
 H         -1.76626        1.28682       -0.10723
 H         -0.23129        2.17304       -0.10723
 }
 basis={ default,svp }
 {ks,MM06,direct;wf,34,1,0}
 {ibba,bonds=1}

 Variables initialized (895), CPU time= 0.00 sec
 Commands  initialized (725), CPU time= 0.01 sec, 591 directives.
 Default parameters read. Elapsed time= 0.07 sec

 Checking input...
 Passed
1


                                         ***  PROGRAM SYSTEM MOLPRO  ***
                                       Copyright, TTI GmbH Stuttgart, 2015
                                    Version 2099.9 linked May 26 2017 16:03:21


 **********************************************************************************************************************************
 LABEL *                                                                                 
  64 bit serial version                                                                  DATE: 09-Jun-17          TIME: 00:11:09  
 **********************************************************************************************************************************

 SHA1:             b4a5b34a9e711420743f49e6833241d17c61fb3c
 **********************************************************************************************************************************
 SETTING GEOMTYP        =    XYZ

 Variable memory set to  500000000 words,  buffer space 

 ZSYMEL=NOSYM

 SETTING BASIS          =    SVP


 Recomputing integrals since basis changed


 Using spherical harmonics

 Library entry C      S def2-SVP             selected for orbital group  1
 Library entry C      P def2-SVP             selected for orbital group  1
 Library entry C      D def2-SVP             selected for orbital group  1
 Library entry H      S def2-SVP             selected for orbital group  2
 Library entry H      P def2-SVP             selected for orbital group  2


 PROGRAM * SEWARD (Integral evaluation for generally contracted gaussian basis sets)     Author: Roland Lindh, 1990

 Geometry written to block  1 of record 700


 Point group  C1  



 ATOMIC COORDINATES

 NR  ATOM    CHARGE       X              Y              Z

   1  C       6.00    0.000000000    0.000000000    0.000000000
   2  H       1.00    0.000000000    0.000000000    2.079756984
   3  C       6.00    2.762949669    0.000000000   -0.885431176
   4  C       6.00   -1.381484283   -2.392790116   -0.885431176
   5  C       6.00   -1.381484283    2.392790116   -0.885431176
   6  H       1.00    2.874613586    0.000000000   -2.957515871
   7  H       1.00   -1.437306793   -2.489487402   -2.957515871
   8  H       1.00   -1.437306793    2.489487402   -2.957515871
   9  H       1.00    3.774822420    1.674713086   -0.202635332
  10  H       1.00    3.774822420   -1.674713086   -0.202635332
  11  H       1.00   -0.437074755   -4.106450458   -0.202635332
  12  H       1.00   -3.337747665   -2.431737372   -0.202635332
  13  H       1.00   -3.337747665    2.431737372   -0.202635332
  14  H       1.00   -0.437074755    4.106450458   -0.202635332

 Bond lengths in Bohr (Angstrom)

 1-2  2.079756984  1-3  2.901358172  1-4  2.901367218  1-5  2.901367218  3-6  2.075091279
     ( 1.100560000)     ( 1.535332625)     ( 1.535337412)     ( 1.535337412)     ( 1.098091015)

  3- 9  2.072380406   3-10  2.072380406   4- 7  2.075090722   4-11  2.072378172   4-12  2.072364222
       ( 1.096656483)       ( 1.096656483)       ( 1.098090721)       ( 1.096655301)       ( 1.096647919)

  5- 8  2.075090722   5-13  2.072364222   5-14  2.072378172
       ( 1.098090721)       ( 1.096647919)       ( 1.096655301)

 Bond angles

  1- 3- 6  110.85354902   1- 3- 9  111.37220114   1- 3-10  111.37220114   1- 4- 7  110.85320625

  1- 4-11  111.37204414   1- 4-12  111.37216555   1- 5- 8  110.85320625   1- 5-13  111.37216555

  1- 5-14  111.37204414   2- 1- 3  107.76888332   2- 1- 4  107.76882608   2- 1- 5  107.76882608

  3-1-4  111.11870751   3-1-5  111.11870751   4-1-5  111.11845005   6-3-9  107.62119374

  6- 3-10  107.62119374   7- 4-11  107.62125572   7- 4-12  107.62162102   8- 5-13  107.62162102

  8- 5-14  107.62125572   9- 3-10  107.82352924  11- 4-12  107.82360822  13- 5-14  107.82360822

 NUCLEAR CHARGE:                   34
 NUMBER OF PRIMITIVE AOS:         170
 NUMBER OF SYMMETRY AOS:          166
 NUMBER OF CONTRACTIONS:          106   ( 106A   )
 NUMBER OF CORE ORBITALS:           4   (   4A   )
 NUMBER OF VALENCE ORBITALS:       26   (  26A   )


 NUCLEAR REPULSION ENERGY  134.07051350


 Eigenvalues of metric

         1 0.225E-02 0.614E-02 0.614E-02 0.233E-01 0.256E-01 0.268E-01 0.268E-01 0.277E-01


 Contracted 2-electron integrals neglected if value below      1.0D-11
 AO integral compression algorithm  1   Integral accuracy      1.0D-11

     64.750 MB (compressed) written to integral file ( 46.7%)


 NUMBER OF SORTED TWO-ELECTRON INTEGRALS:   16082956.     BUFFER LENGTH:  32768
 NUMBER OF SEGMENTS:   2  SEGMENT LENGTH:   15997996      RECORD LENGTH: 524288

 Memory used in sort:      16.56 MW

 SORT1 READ    17384690. AND WROTE    14795173. INTEGRALS IN     44 RECORDS. CPU TIME:     0.21 SEC, REAL TIME:     0.44 SEC
 SORT2 READ    14795173. AND WROTE    16082956. INTEGRALS IN    247 RECORDS. CPU TIME:     0.41 SEC, REAL TIME:     0.51 SEC

 FILE SIZES:   FILE 1:    95.4 MBYTE,  FILE 4:   184.6 MBYTE,   TOTAL:    279.9 MBYTE

 OPERATOR DM      FOR CENTER  0  COORDINATES:    0.000000    0.000000    0.000000


 **********************************************************************************************************************************
 DATASETS  * FILE   NREC   LENGTH (MB)   RECORD NAMES
              1      19       87.57       500      610      700      900      950      970     1000      129      960     1100   
                                          VAR    BASINP    GEOM    SYMINP    ZMAT    AOBASIS   BASIS     P2S    ABASIS      S 
                                         1400     1410     1200     1210     1080     1600     1650     1300     1700   
                                           T        V       H0       H01     AOSYM     SMH    MOLCAS    ERIS     OPER   

 PROGRAMS   *        TOTAL       INT
 CPU TIMES  *         2.70      2.56
 REAL TIME  *         3.48 SEC
 DISK USED  *       280.45 MB      
 **********************************************************************************************************************************

 Density functional group MM06=M06X+M06C
 Functional: M06X(Automatically generated (new) M06X)                          Gradient terms: 2
 Functional: M06C(Automatically generated (new) M06C)                          Gradient terms: 2
 Use grid at  1800.2


 Exact exchange will be calculated, factor:  0.2700

 Functional: M06X                      Factor:  0.7300
 Functional: M06C                      Factor:  1.0000

 Generated new metagrid on record  1800.2 with target accuracy 1.0D-06 and 45620 points in CPU time    1.1
 Computed new grid on record 1800.1 in CPU time    1.2
  169114 words reserved for DFT integration

 PROGRAM * RKS-SCF (Restricted closed shell Kohn-Sham)     Authors: W. Meyer, H.-J. Werner, P.J. Knowles, 1993

 NUMBER OF ELECTRONS:      17+   17-    SPACE SYMMETRY=1    SPIN SYMMETRY: Singlet 
 CONVERGENCE THRESHOLDS:    1.00E-05 (Density)    1.00E-06 (Energy)
 MAX. NUMBER OF ITERATIONS:       60
 INTERPOLATION TYPE:            DIIS
 INTERPOLATION STEPS:              2 (START)      1 (STEP)
 LEVEL SHIFTS:                  0.00 (CLOSED)  0.00 (OPEN) 



 Use fine grid record 1800.2 for energy threshold  1.0D-06
 Orbital guess generated from atomic densities. Full valence occupancy:   17

 Molecular orbital dump at record        2100.2

 Initial occupancy:  17

 ITERATION    DDIFF          GRAD             ENERGY        2-EL.EN.            DIPOLE MOMENTS         DIIS   ORB.
    1      0.000D+00      0.000D+00      -153.41090880    411.716916   -0.00037   -0.00000    0.00471    0    start
    2      0.000D+00      0.804D-02      -153.33697162    389.861338   -0.01969   -0.00000    0.05183    1    diag
    3      0.185D-01      0.107D-01      -153.52716714    402.194124   -0.00662   -0.00000    0.08143    2    diag
    4      0.110D-01      0.582D-03      -153.52756368    402.050110   -0.00803   -0.00000    0.04563    3    diag
    5      0.632D-03      0.263D-03      -153.52765950    402.152697   -0.00806   -0.00000    0.04648    4    diag
    6      0.246D-03      0.449D-04      -153.52766243    402.145309   -0.00785   -0.00000    0.05431    5    diag
    7      0.595D-04      0.102D-04      -153.52766260    402.143354   -0.00788   -0.00000    0.05130    6    diag
    8      0.130D-04      0.169D-05      -153.52766261    402.142673   -0.00788   -0.00000    0.05176    7    diag
    9      0.226D-05      0.117D-06      -153.52766261    402.142761   -0.00788   -0.00000    0.05172    0    orth

 Final occupancy:  17

 !RKS STATE 1.1 Energy               -153.527662607304
 Nuclear energy                       134.07051350
 One-electron energy                 -474.78577272
 Two-electron energy                  201.07138051
 SCF exchange energy                  -23.97639936     Factor= 0.2700
 Density functional                   -13.88378389     M06X=-17.20504226 M06C= -1.32410304
 Virial quotient                       -0.99521576
 !RKS STATE 1.1 Dipole moment          -0.00787899    -0.00000000     0.05172461
 Dipole moment /Debye                  -0.02002508    -0.00000000     0.13146223

 Orbital energies:

         1.1          2.1          3.1          4.1          5.1          6.1          7.1          8.1          9.1         10.1
     -9.909492    -9.900018    -9.899981    -9.899879    -0.740726    -0.618387    -0.618319    -0.498686    -0.414561    -0.382088

        11.1         12.1         13.1         14.1         15.1         16.1         17.1         18.1         19.1
     -0.382079    -0.331659    -0.331470    -0.309277    -0.280136    -0.279752    -0.269623     0.081908     0.128304

 HOMO     17.1    -0.269623 =      -7.3368eV
 LUMO     18.1     0.081908 =       2.2288eV
 LUMO-HOMO         0.351531 =       9.5656eV


 **********************************************************************************************************************************
 DATASETS  * FILE   NREC   LENGTH (MB)   RECORD NAMES
              1      20       89.03       500      610      700      900      950      970     1000      129      960     1100   
                                          VAR    BASINP    GEOM    SYMINP    ZMAT    AOBASIS   BASIS     P2S    ABASIS      S 
                                         1400     1410     1200     1210     1080     1600     1650     1300     1700     1800   
                                           T        V       H0       H01     AOSYM     SMH    MOLCAS    ERIS     OPER     GRID   

              2       5        3.22       700     1000      520     1800     2100   
                                         GEOM     BASIS   MCVARS    GRID      RKS  

 PROGRAMS   *        TOTAL        KS       INT
 CPU TIMES  *        34.08     31.37      2.56
 REAL TIME  *        35.14 SEC
 DISK USED  *       280.45 MB      
 **********************************************************************************************************************************


 PROGRAM * Intrinsic Basis Bonding Analysis (IBBA)          Author: G. Knizia

 Molecular orbitals read from record     2100.2  Type=RKS/CANONICAL (state 1.1)
 Fock matrix read from record            2100.2  Type=RKS/TOTAL (state 1.1)
 Orbital energies read from record       2100.2  Type=RKS/CANONICAL (state 1.1)
 Density matrix read from record         2100.2  Type=RKS/CHARGE (state 1.1)

 Number of core orbitals:           4 (   4 )
 Number of closed-shell orbitals:  13 (  13 )

 Basis set MINAO-AUTO-PP generated.      Number of basis functions:   30 

 Polarized AO type:                A = (O Ot + (1-O)(1-Ot)) P12
 Orthogonalization method:         Symmetric (Loewdin)
 Localization functional:          L = sum[A,i] <i|n_A|i>^4 -> max

 Localization group 1:  17 orbitals, occupancy  2.000
 Iterative localization: IB/PM,    7 iter; Final gradient 0.53E-08

 Bond order analysis:       [THRPRINT= 0.020]

   CEN ATOM   CEN ATOM     WIBERG.BO      RENORM.BO
     1   C  -   3   C       1.013657       1.011632
     1   C  -   4   C       1.013479       1.011522
     1   C  -   5   C       1.013479       1.011522
     1   C  -   2   H       0.932803       0.953473

     2   H  -   1   C       0.932803       0.953473

     3   C  -   1   C       1.013657       1.011632
     3   C  -   9   H       0.967014       0.982318
     3   C  -  10   H       0.967014       0.982318
     3   C  -   6   H       0.964199       0.975502

     4   C  -   1   C       1.013479       1.011522
     4   C  -  11   H       0.967039       0.982307
     4   C  -  12   H       0.966907       0.982465
     4   C  -   7   H       0.964284       0.975473

     5   C  -   1   C       1.013479       1.011522
     5   C  -  14   H       0.967039       0.982307
     5   C  -  13   H       0.966907       0.982465
     5   C  -   8   H       0.964284       0.975473

     6   H  -   3   C       0.964199       0.975502

     7   H  -   4   C       0.964284       0.975473

     8   H  -   5   C       0.964284       0.975473

     9   H  -   3   C       0.967014       0.982318

    10   H  -   3   C       0.967014       0.982318

    11   H  -   4   C       0.967039       0.982307

    12   H  -   4   C       0.966907       0.982465

    13   H  -   5   C       0.966907       0.982465

    14   H  -   5   C       0.967039       0.982307


 Valency analysis:

   CEN ATOM   TOT.VALENCE
     1   C       3.982530
     2   H       0.990872
     3   C       3.951940
     4   C       3.951934
     5   C       3.951934
     6   H       0.988970
     7   H       0.989056
     8   H       0.989056
     9   H       0.987863
    10   H       0.987863
    11   H       0.987930
    12   H       0.987691
    13   H       0.987691
    14   H       0.987930

 Total charge composition:

   CEN ATOM         s          p       ELECTRONS ->P.CHARGE
     1   C       2.92336    3.11651      6.03987   -0.03987
     2   H       0.90446                 0.90446    0.09554
     3   C       2.99181    3.35231      6.34412   -0.34412
     4   C       2.99173    3.35215      6.34388   -0.34388
     5   C       2.99173    3.35215      6.34388   -0.34388
     6   H       0.89498                 0.89498    0.10502
     7   H       0.89539                 0.89539    0.10461
     8   H       0.89539                 0.89539    0.10461
     9   H       0.88983                 0.88983    0.11017
    10   H       0.88983                 0.88983    0.11017
    11   H       0.89014                 0.89014    0.10986
    12   H       0.88906                 0.88906    0.11094
    13   H       0.88906                 0.88906    0.11094
    14   H       0.89014                 0.89014    0.10986

 Total charge composition, AO contributions:

   CEN ATOM SHL      SPHERICAL COMPONENTS
     1   C  1s       1.99316
     1   C  2s       0.93020
     1   C  2p       1.01046    1.01042    1.09563

     2   H  1s       0.90446

     3   C  1s       1.99261
     3   C  2s       0.99920
     3   C  2p       1.06929    1.14700    1.13602

     4   C  1s       1.99261
     4   C  2s       0.99911
     4   C  2p       1.12827    1.08832    1.13556

     5   C  1s       1.99261
     5   C  2s       0.99911
     5   C  2p       1.12827    1.08832    1.13556

     6   H  1s       0.89498

     7   H  1s       0.89539

     8   H  1s       0.89539

     9   H  1s       0.88983

    10   H  1s       0.88983

    11   H  1s       0.89014

    12   H  1s       0.88906

    13   H  1s       0.88906

    14   H  1s       0.89014

 Summary of localized orbital composition:   [THRPRINT= 0.020]

   ORB  GRP  ORB.ENERGY      CENTERS/CHARGES
     1   1    -9.812196      C  1   2.000
     2   1    -9.793473      C  4   2.000
     3   1    -9.793473      C  5   2.000
     4   1    -9.793383      C  3   2.000
     5   1    -0.503276      C  3   1.008   C  1   0.974
     6   1    -0.503120      C  5   1.008   C  1   0.974
     7   1    -0.503120      C  4   1.008   C  1   0.974
     8   1    -0.437582      C  4   1.109   H 12   0.881
     9   1    -0.437582      C  5   1.109   H 13   0.881
    10   1    -0.437328      C  4   1.103   H  7   0.887
    11   1    -0.437328      C  5   1.103   H  8   0.887
    12   1    -0.437299      C  3   1.104   H  6   0.886
    13   1    -0.436702      C  3   1.108   H 10   0.882
    14   1    -0.436702      C  3   1.108   H  9   0.882
    15   1    -0.436607      C  4   1.108   H 11   0.882
    16   1    -0.436607      C  5   1.108   H 14   0.882
    17   1    -0.430355      C  1   1.075   H  2   0.891   (other: 0.034)

 Localized orbitals saved to record      2100.2  (orbital set 2)


 **********************************************************************************************************************************
 DATASETS  * FILE   NREC   LENGTH (MB)   RECORD NAMES
              1      20       89.03       500      610      700      900      950      970     1000      129      960     1100   
                                          VAR    BASINP    GEOM    SYMINP    ZMAT    AOBASIS   BASIS     P2S    ABASIS      S 
                                         1400     1410     1200     1210     1080     1600     1650     1300     1700     1800   
                                           T        V       H0       H01     AOSYM     SMH    MOLCAS    ERIS     OPER     GRID   

              2       5        3.31       700     1000      520     1800     2100   
                                         GEOM     BASIS   MCVARS    GRID      RKS  

 PROGRAMS   *        TOTAL      IBBA        KS       INT
 CPU TIMES  *        34.12      0.03     31.37      2.56
 REAL TIME  *        35.65 SEC
 DISK USED  *       280.45 MB      
 **********************************************************************************************************************************
 Molecular orbitals read from record     2100.2  Type=RKS/LOCAL(IBO)  
 Occupation numbers read from record     2100.2  Type=RKS/LOCAL(IBO)  
 Orbital energies read from record       2100.2  Type=RKS/LOCAL(IBO)  
 Redundancy group numbers read from rec  2100.2  Type=RKS/LOCAL(IBO)  

 IBBA/SVP energy=      0.000000000000

        KS-SCF  
   -153.52766261
 **********************************************************************************************************************************
 Molpro calculation terminated
