
 Primary working directories    : /local
 Secondary working directories  : /local
 Wavefunction directory         : /local/
 Main file repository           : /local/

 SHA1      : b4a5b34a9e711420743f49e6833241d17c61fb3c
 NAME      : 2099.9.b4a5b34
 ARCHNAME  : linux/x86_64_openmp
 FC        : /cm/shared/languages/GCC-6.1/bin/gfortran
 BLASLIB   : -lblas
 id        : simonbennie

 Nodes     nprocs
 node33-013    1

 Using customized tuning parameters: mindgm=1; mindgv=20; mindgc=4; mindgr=1; noblas=0; minvec=7
 default implementation of scratch files=df  

 memory,500,m
 geomtyp=xyz
 nosym
 noorient
 geometry={
 C         -1.53233        0.02247        0.00000
 C         -0.00192        0.01421        0.00000
 O          0.37239        1.40356        0.00000
 H          1.34248        1.44036        0.00000
 H         -1.92991       -0.99819        0.00000
 H         -1.90797        0.54382       -0.88653
 H         -1.90797        0.54382        0.88653
 C          0.54303       -0.66466       -1.26580
 C          0.54303       -0.66466        1.26580
 H          0.17836       -0.14752       -2.15943
 H          0.17836       -0.14752        2.15943
 H          0.23752       -1.71600       -1.32280
 H          0.23752       -1.71600        1.32280
 H          1.64084       -0.63767       -1.28032
 H          1.64084       -0.63767        1.28032
 }
 basis={ default,tzvp }
 {uks,M06,direct;wf,42,1,0}
 {ibba,bonds=1}

 Variables initialized (895), CPU time= 0.00 sec
 Commands  initialized (725), CPU time= 0.02 sec, 591 directives.
 Default parameters read. Elapsed time= 0.08 sec

 Checking input...
 Passed
1


                                         ***  PROGRAM SYSTEM MOLPRO  ***
                                       Copyright, TTI GmbH Stuttgart, 2015
                                    Version 2099.9 linked May 26 2017 16:03:21


 **********************************************************************************************************************************
 LABEL *                                                                                 
  64 bit serial version                                                                  DATE: 12-Jun-17          TIME: 19:25:44  
 **********************************************************************************************************************************

 SHA1:             b4a5b34a9e711420743f49e6833241d17c61fb3c
 **********************************************************************************************************************************
 SETTING GEOMTYP        =    XYZ

 Variable memory set to  500000000 words,  buffer space 

 ZSYMEL=NOSYM

 SETTING BASIS          =    TZVP


 Recomputing integrals since basis changed


 Using spherical harmonics

 Library entry C      S def2-TZVP            selected for orbital group  1
 Library entry C      P def2-TZVP            selected for orbital group  1
 Library entry C      D def2-TZVP            selected for orbital group  1
 Library entry C      F def2-TZVP            selected for orbital group  1
 Library entry O      S def2-TZVP            selected for orbital group  2
 Library entry O      P def2-TZVP            selected for orbital group  2
 Library entry O      D def2-TZVP            selected for orbital group  2
 Library entry O      F def2-TZVP            selected for orbital group  2
 Library entry H      S def2-TZVP            selected for orbital group  3
 Library entry H      P def2-TZVP            selected for orbital group  3


 PROGRAM * SEWARD (Integral evaluation for generally contracted gaussian basis sets)     Author: Roland Lindh, 1990

 Geometry written to block  1 of record 700


 Point group  C1  



 ATOMIC COORDINATES

 NR  ATOM    CHARGE       X              Y              Z

   1  C       6.00   -2.895684032    0.042462146    0.000000000
   2  C       6.00   -0.003628274    0.026853008    0.000000000
   3  O       8.00    0.703715112    2.652343999    0.000000000
   4  H       1.00    2.536919528    2.721885921    0.000000000
   5  H       1.00   -3.647001345   -1.886305720    0.000000000
   6  H       1.00   -3.605540754    1.027670861   -1.675298901
   7  H       1.00   -3.605540754    1.027670861    1.675298901
   8  C       6.00    1.026177977   -1.256025366   -2.392015328
   9  C       6.00    1.026177977   -1.256025366    2.392015328
  10  H       1.00    0.337051552   -0.278772398   -4.080731285
  11  H       1.00    0.337051552   -0.278772398    4.080731285
  12  H       1.00    0.448847749   -3.242770030   -2.499729718
  13  H       1.00    0.448847749   -3.242770030    2.499729718
  14  H       1.00    3.100738214   -1.205021658   -2.419454152
  15  H       1.00    3.100738214   -1.205021658    2.419454152

 Bond lengths in Bohr (Angstrom)

 1-2  2.892097881  1-5  2.069933136  1-6  2.069096224  1-7  2.069096224  2-3  2.719106031
     ( 1.530432290)     ( 1.095361444)     ( 1.094918569)     ( 1.094918569)     ( 1.438888946)

  2- 8  2.903104402   2- 9  2.903104402   3- 4  1.834522965   8-10  2.069222119   8-12  2.071730422
       ( 1.536256691)       ( 1.536256691)       ( 0.970787746)       ( 1.094985190)       ( 1.096312526)

  8-14  2.075368508   9-11  2.069222119   9-13  2.071730422   9-15  2.075368508
       ( 1.098237719)       ( 1.094985190)       ( 1.096312526)       ( 1.098237719)

 Bond angles

  1-2-3  104.76902697   1-2-8  110.92255387   1-2-9  110.92255387   2-1-5  110.97328220

  2- 1- 6  110.22090701   2- 1- 7  110.22090701   2- 3- 4  107.25071562   2- 8-10  110.21836376

  2- 8-12  111.57747468   2- 8-14  110.77023896   2- 9-11  110.21836376   2- 9-13  111.57747468

  2- 9-15  110.77023896   3- 2- 8  109.53648747   3- 2- 9  109.53648747   5- 1- 6  108.61190457

  5- 1- 7  108.61190457   6- 1- 7  108.12870271   8- 2- 9  110.96453384  10- 8-12  108.52192632

 10- 8-14  108.08997829  11- 9-13  108.52192632  11- 9-15  108.08997829  12- 8-14  107.54424578

 13- 9-15  107.54424578

 NUCLEAR CHARGE:                   42
 NUMBER OF PRIMITIVE AOS:         335
 NUMBER OF SYMMETRY AOS:          310
 NUMBER OF CONTRACTIONS:          215   ( 215A   )
 NUMBER OF CORE ORBITALS:           5   (   5A   )
 NUMBER OF VALENCE ORBITALS:       30   (  30A   )


 NUCLEAR REPULSION ENERGY  198.77359127


 Eigenvalues of metric

         1 0.262E-03 0.510E-03 0.539E-03 0.594E-03 0.697E-03 0.755E-03 0.210E-02 0.239E-02


 Contracted 2-electron integrals neglected if value below      1.0D-11
 AO integral compression algorithm  1   Integral accuracy      1.0D-11

     977.797 MB (compressed) written to integral file ( 41.7%)


 NUMBER OF SORTED TWO-ELECTRON INTEGRALS:  269595810.     BUFFER LENGTH:  32768
 NUMBER OF SEGMENTS:  17  SEGMENT LENGTH:   15999762      RECORD LENGTH: 524288

 Memory used in sort:      16.56 MW

 SORT1 READ   292827432. AND WROTE   238500613. INTEGRALS IN    690 RECORDS. CPU TIME:     3.46 SEC, REAL TIME:     6.75 SEC
 SORT2 READ   238500613. AND WROTE   269595810. INTEGRALS IN   3730 RECORDS. CPU TIME:     5.85 SEC, REAL TIME:    21.18 SEC

 FILE SIZES:   FILE 1:  1009.7 MBYTE,  FILE 4:  2894.1 MBYTE,   TOTAL:   3903.8 MBYTE

 OPERATOR DM      FOR CENTER  0  COORDINATES:    0.000000    0.000000    0.000000


 **********************************************************************************************************************************
 DATASETS  * FILE   NREC   LENGTH (MB)   RECORD NAMES
              1      19      926.27       500      610      700      900      950      970     1000      129      960     1100   
                                          VAR    BASINP    GEOM    SYMINP    ZMAT    AOBASIS   BASIS     P2S    ABASIS      S 
                                         1400     1410     1200     1210     1080     1600     1650     1300     1700   
                                           T        V       H0       H01     AOSYM     SMH    MOLCAS    ERIS     OPER   

 PROGRAMS   *        TOTAL       INT
 CPU TIMES  *        25.80     25.66
 REAL TIME  *        59.64 SEC
 DISK USED  *         3.90 GB      
 **********************************************************************************************************************************

 Density functional group M06=XC-M06
 Functional: XC-M06(via MFM 1.6)                                               Gradient terms: 1
 Use grid at  1800.2


 Exact exchange will be calculated, factor:  0.2700

 Functional: XC-M06                    Factor:  1.0000

 Generated new metagrid on record  1800.2 with target accuracy 1.0D-06 and 54596 points in CPU time    1.7
 Computed new grid on record 1800.1 in CPU time    1.9
  175219 words reserved for DFT integration

 PROGRAM * UKS-SCF (Unrestricted Kohn-Sham)     Authors: W. Meyer, H.-J. Werner, P.J. Knowles, 1993

 NUMBER OF ELECTRONS:      21+   21-    SPACE SYMMETRY=1    SPIN SYMMETRY: Singlet 
 CONVERGENCE THRESHOLDS:    1.00E-05 (Density)    1.00E-06 (Energy)
 MAX. NUMBER OF ITERATIONS:       60
 INTERPOLATION TYPE:            DIIS
 INTERPOLATION STEPS:              2 (START)      1 (STEP)
 LEVEL SHIFTS:                 -0.20 (ALPHA)  -0.20 (BETA) 



 Use fine grid record 1800.2 for energy threshold  1.0D-06
 Orbital guess generated from atomic densities. Full valence occupancy:   21

 Molecular orbital dump at record        2200.2

 Initial alpha occupation  21
 Initial beta  occupation  21

 ITERATION    DDIFF          GRAD             ENERGY        2-EL.EN.            DIPOLE MOMENTS         DIIS
    1      0.000D+00      0.000D+00      -233.38847245    619.208680    0.70566   -0.85726    0.00000    0
    2      0.531D-02      0.300D-02      -233.56580151    600.203081    0.27746   -0.47150    0.00000    1
    3      0.148D-02      0.149D-02      -233.59767943    604.883448    0.37898   -0.56377    0.00000    2
    4      0.688D-03      0.224D-03      -233.59885630    604.732645    0.36755   -0.51844    0.00000    3
    5      0.543D-03      0.111D-03      -233.59928138    604.628123    0.36388   -0.51901    0.00000    4
    6      0.239D-03      0.312D-04      -233.59933922    604.593828    0.36164   -0.51270    0.00000    5
    7      0.619D-04      0.786D-05      -233.59934244    604.572238    0.36058   -0.51185    0.00000    6
    8      0.135D-04      0.420D-05      -233.59934292    604.581654    0.36060   -0.51207    0.00000    7
    9      0.655D-05      0.724D-06      -233.59934296    604.580263    0.36046   -0.51197    0.00000    6
   10      0.160D-05      0.217D-06      -233.59934296    604.581006    0.36044   -0.51203    0.00000    7

 Final alpha occupancy:  21
 Final beta  occupancy:  21

 !UKS STATE 1.1 Energy               -233.599342964630
 Nuclear energy                       198.77359127
 One-electron energy                 -709.53967036
 Two-electron energy                  302.29050312
 Density functional                   -25.12376700     XC-M06=-25.12376700
 Virial quotient                       -1.00553035
 !UKS STATE 1.1 Dipole moment           0.36044171    -0.51203019     0.00000000
 Dipole moment /Debye                   0.91609145    -1.30136568     0.00000000

 Orbital energies for positive spin:

         1.1          2.1          3.1          4.1          5.1          6.1          7.1          8.1          9.1         10.1
    -19.202252   -10.299119   -10.229632   -10.229622   -10.224020    -1.040296    -0.800380    -0.703445    -0.702264    -0.580192

        11.1         12.1         13.1         14.1         15.1         16.1         17.1         18.1         19.1         20.1
     -0.502185    -0.464681    -0.461678    -0.425125    -0.410425    -0.392974    -0.379033    -0.369629    -0.362168    -0.335001

        21.1         22.1         23.1
     -0.288451     0.017774     0.061854

 Orbital energies for negative spin:

         1.1          2.1          3.1          4.1          5.1          6.1          7.1          8.1          9.1         10.1
    -19.202251   -10.299120   -10.229631   -10.229622   -10.224019    -1.040293    -0.800379    -0.703444    -0.702263    -0.580191

        11.1         12.1         13.1         14.1         15.1         16.1         17.1         18.1         19.1         20.1
     -0.502184    -0.464681    -0.461678    -0.425125    -0.410425    -0.392973    -0.379033    -0.369628    -0.362168    -0.335000

        21.1         22.1         23.1
     -0.288449     0.017775     0.061855

 HOMO    -21.1    -0.288449 =      -7.8491eV
 LUMO     22.1     0.017774 =       0.4836eV
 LUMO-HOMO         0.306223 =       8.3327eV

 EXPECTATION VALUE OF S**2:             0.00000000

 Occupation number threshold for canonical orbitals:  1.999000 (occupied),  0.001000 (virtual)

 Number of pseudo-canonical orbitals per symmetry:   21
 Number of active natural orbitals per symmetry:      0

 Natural orbitals saved to record    2200.2 (Orbital set 3)

 Orbital spaces for UNO-CAS (Min. occupation: 0.020  Max. occupation: 1.980):

 Closed:       21
 Active:        0


 **********************************************************************************************************************************
 DATASETS  * FILE   NREC   LENGTH (MB)   RECORD NAMES
              1      20      928.02       500      610      700      900      950      970     1000      129      960     1100   
                                          VAR    BASINP    GEOM    SYMINP    ZMAT    AOBASIS   BASIS     P2S    ABASIS      S 
                                         1400     1410     1200     1210     1080     1600     1650     1300     1700     1800   
                                           T        V       H0       H01     AOSYM     SMH    MOLCAS    ERIS     OPER     GRID   

              2       5        4.89       700     1000      520     1800     2200   
                                         GEOM     BASIS   MCVARS    GRID      UKS  

 PROGRAMS   *        TOTAL       UKS       INT
 CPU TIMES  *       232.06    206.26     25.66
 REAL TIME  *       268.03 SEC
 DISK USED  *         3.90 GB      
 **********************************************************************************************************************************


 PROGRAM * Intrinsic Basis Bonding Analysis (IBBA)          Author: G. Knizia

 Molecular orbitals read from record     2200.2  Type=UKS/ALPHA (state 1.1)
 Fock matrix read from record            2200.2  Type=UKS/TOTAL (state 1.1)
 Orbital energies read from record       2200.2  Type=UKS/ALPHA (state 1.1)
 Density matrix read from record         2200.2  Type=UKS/CHARGE (state 1.1)

 Number of core orbitals:           5 (   5 )
 Number of closed-shell orbitals:  16 (  16 )

 Basis set MINAO-AUTO-PP generated.      Number of basis functions:   35 

 Polarized AO type:                A = (O Ot + (1-O)(1-Ot)) P12
 Orthogonalization method:         Symmetric (Loewdin)
 Localization functional:          L = sum[A,i] <i|n_A|i>^4 -> max

 Localization group 1:  21 orbitals, occupancy  2.000
 Iterative localization: IB/PM,    7 iter; Final gradient 0.23E-08

 Bond order analysis:       [THRPRINT= 0.020]

   CEN ATOM   CEN ATOM     WIBERG.BO      RENORM.BO
     1   C  -   2   C       0.995767       0.993308
     1   C  -   5   H       0.964430       0.987807
     1   C  -   6   H       0.959755       0.982492
     1   C  -   7   H       0.959755       0.982492

     2   C  -   1   C       0.995767       0.993308
     2   C  -   9   C       0.994586       0.976241
     2   C  -   8   C       0.994586       0.976241
     2   C  -   3   O       0.928905       0.951751

     3   O  -   2   C       0.928905       0.951751
     3   O  -   4   H       0.858298       0.977579
     3   O  -   8   C       0.026834       0.013698
     3   O  -   9   C       0.026834       0.013698

     4   H  -   3   O       0.858298       0.977579

     5   H  -   1   C       0.964430       0.987807

     6   H  -   1   C       0.959755       0.982492

     7   H  -   1   C       0.959755       0.982492

     8   C  -   2   C       0.994586       0.976241
     8   C  -  14   H       0.963828       0.983105
     8   C  -  12   H       0.960195       0.982427
     8   C  -  10   H       0.960027       0.982275
     8   C  -   3   O       0.026834       0.013698

     9   C  -   2   C       0.994586       0.976241
     9   C  -  15   H       0.963828       0.983105
     9   C  -  13   H       0.960195       0.982427
     9   C  -  11   H       0.960027       0.982275
     9   C  -   3   O       0.026834       0.013698

    10   H  -   8   C       0.960027       0.982275

    11   H  -   9   C       0.960027       0.982275

    12   H  -   8   C       0.960195       0.982427

    13   H  -   9   C       0.960195       0.982427

    14   H  -   8   C       0.963828       0.983105

    15   H  -   9   C       0.963828       0.983105


 Valency analysis:

   CEN ATOM   TOT.VALENCE
     1   C       3.937390
     2   C       3.924506
     3   O       1.904541
     4   H       0.876972
     5   H       0.982248
     6   H       0.979694
     7   H       0.979694
     8   C       3.939680
     9   C       3.939680
    10   H       0.979613
    11   H       0.979613
    12   H       0.981404
    13   H       0.981404
    14   H       0.983720
    15   H       0.983720

 Total charge composition:

   CEN ATOM         s          p       ELECTRONS ->P.CHARGE
     1   C       3.03808    3.37537      6.41345   -0.41345
     2   C       2.92967    2.79444      5.72412    0.27588
     3   O       3.65356    4.93674      8.59029   -0.59029
     4   H       0.64925                 0.64925    0.35075
     5   H       0.86676                 0.86676    0.13324
     6   H       0.85750                 0.85750    0.14250
     7   H       0.85750                 0.85750    0.14250
     8   C       3.04438    3.38292      6.42731   -0.42731
     9   C       3.04438    3.38292      6.42731   -0.42731
    10   H       0.85722                 0.85722    0.14278
    11   H       0.85722                 0.85722    0.14278
    12   H       0.86363                 0.86363    0.13637
    13   H       0.86363                 0.86363    0.13637
    14   H       0.87241                 0.87241    0.12759
    15   H       0.87241                 0.87241    0.12759

 Total charge composition, AO contributions:

   CEN ATOM SHL      SPHERICAL COMPONENTS
     1   C  1s       1.99143
     1   C  2s       1.04665
     1   C  2p       1.04378    1.16007    1.17153

     2   C  1s       1.99303
     2   C  2s       0.93664
     2   C  2p       1.00660    0.77926    1.00858

     3   O  1s       1.99719
     3   O  2s       1.65637
     3   O  2p       1.47906    1.50018    1.95749

     4   H  1s       0.64925

     5   H  1s       0.86676

     6   H  1s       0.85750

     7   H  1s       0.85750

     8   C  1s       1.99153
     8   C  2s       1.05285
     8   C  2p       1.14290    1.14299    1.09704

     9   C  1s       1.99153
     9   C  2s       1.05285
     9   C  2p       1.14290    1.14299    1.09704

    10   H  1s       0.85722

    11   H  1s       0.85722

    12   H  1s       0.86363

    13   H  1s       0.86363

    14   H  1s       0.87241

    15   H  1s       0.87241

 Summary of localized orbital composition:   [THRPRINT= 0.020]

   ORB  GRP  ORB.ENERGY      CENTERS/CHARGES
     1   1   -19.038615      O  3   2.000
     2   1   -10.207440      C  2   2.000
     3   1   -10.114606      C  9   2.000
     4   1   -10.114606      C  8   2.000
     5   1   -10.108205      C  1   2.000
     6   1    -0.777582      O  3   1.352   H  4   0.638
     7   1    -0.735574      O  3   1.295   C  2   0.688
     8   1    -0.601416      O  3   1.982
     9   1    -0.588052      C  9   1.010   C  2   0.975
    10   1    -0.588052      C  8   1.010   C  2   0.975
    11   1    -0.587841      C  1   0.993   C  2   0.984   (other: 0.023)
    12   1    -0.518019      C  8   1.132   H 12   0.854
    13   1    -0.518019      C  9   1.132   H 13   0.854
    14   1    -0.516356      C  8   1.123   H 14   0.865
    15   1    -0.516356      C  9   1.123   H 15   0.865
    16   1    -0.514187      C  1   1.127   H  5   0.860
    17   1    -0.511602      C  9   1.140   H 11   0.849
    18   1    -0.511602      C  8   1.140   H 10   0.849
    19   1    -0.506274      C  1   1.139   H  6   0.850
    20   1    -0.506274      C  1   1.139   H  7   0.850
    21   1    -0.321733      O  3   1.957   (other: 0.043)

 Localized orbitals saved to record      2200.2  (orbital set 4)


 **********************************************************************************************************************************
 DATASETS  * FILE   NREC   LENGTH (MB)   RECORD NAMES
              1      20      928.02       500      610      700      900      950      970     1000      129      960     1100   
                                          VAR    BASINP    GEOM    SYMINP    ZMAT    AOBASIS   BASIS     P2S    ABASIS      S 
                                         1400     1410     1200     1210     1080     1600     1650     1300     1700     1800   
                                           T        V       H0       H01     AOSYM     SMH    MOLCAS    ERIS     OPER     GRID   

              2       5        5.27       700     1000      520     1800     2200   
                                         GEOM     BASIS   MCVARS    GRID      UKS  

 PROGRAMS   *        TOTAL      IBBA       UKS       INT
 CPU TIMES  *       232.12      0.06    206.26     25.66
 REAL TIME  *       268.19 SEC
 DISK USED  *         3.90 GB      
 **********************************************************************************************************************************
 Molecular orbitals read from record     2200.2  Type=UKS/LOCAL(IBO)  
 Occupation numbers read from record     2200.2  Type=UKS/LOCAL(IBO)  
 Orbital energies read from record       2200.2  Type=UKS/LOCAL(IBO)  
 Redundancy group numbers read from rec  2200.2  Type=UKS/BETA (state 1.1)

 IBBA/TZVP energy=      0.000000000000

        UKS-SCF 
   -233.59934296
 **********************************************************************************************************************************
 Molpro calculation terminated
