
 Primary working directories    : /local
 Secondary working directories  : /local
 Wavefunction directory         : /local/
 Main file repository           : /local/

 SHA1      : b4a5b34a9e711420743f49e6833241d17c61fb3c
 NAME      : 2099.9.b4a5b34
 ARCHNAME  : linux/x86_64_openmp
 FC        : /cm/shared/languages/GCC-6.1/bin/gfortran
 BLASLIB   : -lblas
 id        : simonbennie

 Nodes     nprocs
 node44-019    1

 Using customized tuning parameters: mindgm=1; mindgv=20; mindgc=4; mindgr=1; noblas=0; minvec=7
 default implementation of scratch files=df  

 memory,500,m
 geomtyp=xyz
 nosym
 noorient
 geometry={
 C         -1.53233        0.02247        0.00000
 C         -0.00192        0.01421        0.00000
 O          0.37239        1.40356        0.00000
 H          1.34248        1.44036        0.00000
 H         -1.92991       -0.99819        0.00000
 H         -1.90797        0.54382       -0.88653
 H         -1.90797        0.54382        0.88653
 C          0.54303       -0.66466       -1.26580
 C          0.54303       -0.66466        1.26580
 H          0.17836       -0.14752       -2.15943
 H          0.17836       -0.14752        2.15943
 H          0.23752       -1.71600       -1.32280
 H          0.23752       -1.71600        1.32280
 H          1.64084       -0.63767       -1.28032
 H          1.64084       -0.63767        1.28032
 }
 basis={ default,qzvp }
 {uks,M08-SO,direct;wf,42,1,0}
 {ibba,bonds=1}

 Variables initialized (895), CPU time= 0.01 sec
 Commands  initialized (725), CPU time= 0.01 sec, 591 directives.
 Default parameters read. Elapsed time= 0.15 sec

 Checking input...
 Passed
1


                                         ***  PROGRAM SYSTEM MOLPRO  ***
                                       Copyright, TTI GmbH Stuttgart, 2015
                                    Version 2099.9 linked May 26 2017 16:03:21


 **********************************************************************************************************************************
 LABEL *                                                                                 
  64 bit serial version                                                                  DATE: 12-Jun-17          TIME: 16:49:27  
 **********************************************************************************************************************************

 SHA1:             b4a5b34a9e711420743f49e6833241d17c61fb3c
 **********************************************************************************************************************************
 SETTING GEOMTYP        =    XYZ

 Variable memory set to  500000000 words,  buffer space 

 ZSYMEL=NOSYM

 SETTING BASIS          =    QZVP


 Recomputing integrals since basis changed


 Using spherical harmonics

 Library entry C      S def2-QZVP            selected for orbital group  1
 Library entry C      P def2-QZVP            selected for orbital group  1
 Library entry C      D def2-QZVP            selected for orbital group  1
 Library entry C      F def2-QZVP            selected for orbital group  1
 Library entry C      G def2-QZVP            selected for orbital group  1
 Library entry O      S def2-QZVP            selected for orbital group  2
 Library entry O      P def2-QZVP            selected for orbital group  2
 Library entry O      D def2-QZVP            selected for orbital group  2
 Library entry O      F def2-QZVP            selected for orbital group  2
 Library entry O      G def2-QZVP            selected for orbital group  2
 Library entry H      S def2-QZVP            selected for orbital group  3
 Library entry H      P def2-QZVP            selected for orbital group  3
 Library entry H      D def2-QZVP            selected for orbital group  3
 Library entry H      F def2-QZVP            selected for orbital group  3


 PROGRAM * SEWARD (Integral evaluation for generally contracted gaussian basis sets)     Author: Roland Lindh, 1990

 Geometry written to block  1 of record 700


 Point group  C1  



 ATOMIC COORDINATES

 NR  ATOM    CHARGE       X              Y              Z

   1  C       6.00   -2.895684032    0.042462146    0.000000000
   2  C       6.00   -0.003628274    0.026853008    0.000000000
   3  O       8.00    0.703715112    2.652343999    0.000000000
   4  H       1.00    2.536919528    2.721885921    0.000000000
   5  H       1.00   -3.647001345   -1.886305720    0.000000000
   6  H       1.00   -3.605540754    1.027670861   -1.675298901
   7  H       1.00   -3.605540754    1.027670861    1.675298901
   8  C       6.00    1.026177977   -1.256025366   -2.392015328
   9  C       6.00    1.026177977   -1.256025366    2.392015328
  10  H       1.00    0.337051552   -0.278772398   -4.080731285
  11  H       1.00    0.337051552   -0.278772398    4.080731285
  12  H       1.00    0.448847749   -3.242770030   -2.499729718
  13  H       1.00    0.448847749   -3.242770030    2.499729718
  14  H       1.00    3.100738214   -1.205021658   -2.419454152
  15  H       1.00    3.100738214   -1.205021658    2.419454152

 Bond lengths in Bohr (Angstrom)

 1-2  2.892097881  1-5  2.069933136  1-6  2.069096224  1-7  2.069096224  2-3  2.719106031
     ( 1.530432290)     ( 1.095361444)     ( 1.094918569)     ( 1.094918569)     ( 1.438888946)

  2- 8  2.903104402   2- 9  2.903104402   3- 4  1.834522965   8-10  2.069222119   8-12  2.071730422
       ( 1.536256691)       ( 1.536256691)       ( 0.970787746)       ( 1.094985190)       ( 1.096312526)

  8-14  2.075368508   9-11  2.069222119   9-13  2.071730422   9-15  2.075368508
       ( 1.098237719)       ( 1.094985190)       ( 1.096312526)       ( 1.098237719)

 Bond angles

  1-2-3  104.76902697   1-2-8  110.92255387   1-2-9  110.92255387   2-1-5  110.97328220

  2- 1- 6  110.22090701   2- 1- 7  110.22090701   2- 3- 4  107.25071562   2- 8-10  110.21836376

  2- 8-12  111.57747468   2- 8-14  110.77023896   2- 9-11  110.21836376   2- 9-13  111.57747468

  2- 9-15  110.77023896   3- 2- 8  109.53648747   3- 2- 9  109.53648747   5- 1- 6  108.61190457

  5- 1- 7  108.61190457   6- 1- 7  108.12870271   8- 2- 9  110.96453384  10- 8-12  108.52192632

 10- 8-14  108.08997829  11- 9-13  108.52192632  11- 9-15  108.08997829  12- 8-14  107.54424578

 13- 9-15  107.54424578

 NUCLEAR CHARGE:                   42
 NUMBER OF PRIMITIVE AOS:         840
 NUMBER OF SYMMETRY AOS:          715
 NUMBER OF CONTRACTIONS:          585   ( 585A   )
 NUMBER OF CORE ORBITALS:           5   (   5A   )
 NUMBER OF VALENCE ORBITALS:       30   (  30A   )


 NUCLEAR REPULSION ENERGY  198.77359127


 Eigenvalues of metric

         1 0.447E-04 0.459E-04 0.470E-04 0.743E-04 0.823E-04 0.917E-04 0.943E-04 0.107E-03


 Contracted 2-electron integrals neglected if value below      1.0D-12
 AO integral compression algorithm  1   Integral accuracy      1.0D-12

     40752.906 MB (compressed) written to integral file ( 33.4%)


 NUMBER OF SORTED TWO-ELECTRON INTEGRALS:14689922715.     BUFFER LENGTH:  32768
 NUMBER OF SEGMENTS: 184  SEGMENT LENGTH:   79999773      RECORD LENGTH: 262144

 Memory used in sort:      80.29 MW

 SORT1 READ 15248138275. AND WROTE 10587813328. INTEGRALS IN  60679 RECORDS. CPU TIME:   186.23 SEC, REAL TIME:  3613.18 SEC
 SORT2 READ 10587813328. AND WROTE 14689922715. INTEGRALS IN 155460 RECORDS. CPU TIME:   311.30 SEC, REAL TIME:  6380.54 SEC

 FILE SIZES:   FILE 1: 40795.6 MBYTE,  FILE 4:127253.1 MBYTE,   TOTAL: 168048.8 MBYTE

 OPERATOR DM      FOR CENTER  0  COORDINATES:    0.000000    0.000000    0.000000


 **********************************************************************************************************************************
 DATASETS  * FILE   NREC   LENGTH (MB)   RECORD NAMES
              1      19    37754.71       500      610      700      900      950      970     1000      129      960     1100   
                                          VAR    BASINP    GEOM    SYMINP    ZMAT    AOBASIS   BASIS     P2S    ABASIS      S 
                                         1400     1410     1200     1210     1080     1600     1650     1300     1700   
                                           T        V       H0       H01     AOSYM     SMH    MOLCAS    ERIS     OPER   

 PROGRAMS   *        TOTAL       INT
 CPU TIMES  *      1158.66   1158.52
 REAL TIME  *     11386.83 SEC
 DISK USED  *       168.05 GB      
 **********************************************************************************************************************************

 Density functional group M08-SO=XC-M08-SO
 Functional: XC-M08-SO(via MFM 1.6)                                            Gradient terms: 1
 Use grid at  1800.2


 Exact exchange will be calculated, factor:  0.5679

 Functional: XC-M08-SO                 Factor:  1.0000

 Generated new metagrid on record  1800.2 with target accuracy 1.0D-06 and 58228 points in CPU time    1.7
 Computed new grid on record 1800.1 in CPU time    1.9
  469144 words reserved for DFT integration

 PROGRAM * UKS-SCF (Unrestricted Kohn-Sham)     Authors: W. Meyer, H.-J. Werner, P.J. Knowles, 1993

 NUMBER OF ELECTRONS:      21+   21-    SPACE SYMMETRY=1    SPIN SYMMETRY: Singlet 
 CONVERGENCE THRESHOLDS:    1.00E-05 (Density)    1.00E-06 (Energy)
 MAX. NUMBER OF ITERATIONS:       60
 INTERPOLATION TYPE:            DIIS
 INTERPOLATION STEPS:              2 (START)      1 (STEP)
 LEVEL SHIFTS:                 -0.20 (ALPHA)  -0.20 (BETA) 



 Use fine grid record 1800.2 for energy threshold  1.0D-06
 Orbital guess generated from atomic densities. Full valence occupancy:   21

 Molecular orbital dump at record        2200.2

 Initial alpha occupation  21
 Initial beta  occupation  21

 ITERATION    DDIFF          GRAD             ENERGY        2-EL.EN.            DIPOLE MOMENTS         DIIS
    1      0.000D+00      0.000D+00      -233.49565107    594.559945    0.71118   -0.85348    0.00000    0
    2      0.147D-02      0.906D-03      -233.61429989    582.079287    0.31644   -0.52998    0.00000    1
    3      0.588D-03      0.387D-03      -233.62860165    584.650960    0.36828   -0.58655    0.00000    2
    4      0.305D-03      0.787D-04      -233.62998878    584.492606    0.35338   -0.55110    0.00000    3
    5      0.223D-03      0.383D-04      -233.63048110    584.413414    0.34596   -0.55158    0.00000    4
    6      0.121D-03      0.114D-04      -233.63054713    584.378974    0.34294   -0.54839    0.00000    5
    7      0.355D-04      0.245D-05      -233.63055057    584.373931    0.34228   -0.54846    0.00000    6
    8      0.771D-05      0.631D-06      -233.63055077    584.377529    0.34224   -0.54854    0.00000    7
    9      0.232D-05      0.287D-06      -233.63055080    584.375444    0.34213   -0.54848    0.00000    7

 Final alpha occupancy:  21
 Final beta  occupancy:  21

 !UKS STATE 1.1 Energy               -233.630550796734
 Nuclear energy                       198.77359127
 One-electron energy                 -709.16277072
 Two-electron energy                  292.18772203
 Density functional                   -15.42909338     XC-M08-SO=-15.42909338
 Virial quotient                       -1.00538272
 !UKS STATE 1.1 Dipole moment           0.34213183    -0.54848471     0.00000000
 Dipole moment /Debye                   0.86955540    -1.39401777     0.00000000

 Orbital energies for positive spin:

         1.1          2.1          3.1          4.1          5.1          6.1          7.1          8.1          9.1         10.1
    -19.564354   -10.564918   -10.495600   -10.495591   -10.489937    -1.128813    -0.887578    -0.785722    -0.784627    -0.652941

        11.1         12.1         13.1         14.1         15.1         16.1         17.1         18.1         19.1         20.1
     -0.569557    -0.531607    -0.528905    -0.488680    -0.472523    -0.450765    -0.436798    -0.429425    -0.421393    -0.389450

        21.1         22.1         23.1
     -0.353332     0.009424     0.038528

 Orbital energies for negative spin:

         1.1          2.1          3.1          4.1          5.1          6.1          7.1          8.1          9.1         10.1
    -19.564354   -10.564918   -10.495600   -10.495591   -10.489937    -1.128813    -0.887578    -0.785722    -0.784627    -0.652941

        11.1         12.1         13.1         14.1         15.1         16.1         17.1         18.1         19.1         20.1
     -0.569557    -0.531607    -0.528905    -0.488680    -0.472523    -0.450765    -0.436798    -0.429425    -0.421393    -0.389450

        21.1         22.1         23.1
     -0.353332     0.009424     0.038528

 HOMO     21.1    -0.353332 =      -9.6146eV
 LUMO     22.1     0.009424 =       0.2565eV
 LUMO-HOMO         0.362756 =       9.8711eV

 EXPECTATION VALUE OF S**2:            -0.00000000

 Natural orbitals saved to record    2200.2 (Orbital set 3)

 Orbital spaces for UNO-CAS (Min. occupation: 0.020  Max. occupation: 1.980):

 Closed:       21
 Active:        0


 **********************************************************************************************************************************
 DATASETS  * FILE   NREC   LENGTH (MB)   RECORD NAMES
              1      20    37756.57       500      610      700      900      950      970     1000      129      960     1100   
                                          VAR    BASINP    GEOM    SYMINP    ZMAT    AOBASIS   BASIS     P2S    ABASIS      S 
                                         1400     1410     1200     1210     1080     1600     1650     1300     1700     1800   
                                           T        V       H0       H01     AOSYM     SMH    MOLCAS    ERIS     OPER     GRID   

              2       5       16.83       700     1000      520     1800     2200   
                                         GEOM     BASIS   MCVARS    GRID      UKS  

 PROGRAMS   *        TOTAL       UKS       INT
 CPU TIMES  *      4750.43   3591.76   1158.52
 REAL TIME  *     22515.80 SEC
 DISK USED  *       168.05 GB      
 **********************************************************************************************************************************


 PROGRAM * Intrinsic Basis Bonding Analysis (IBBA)          Author: G. Knizia

 Molecular orbitals read from record     2200.2  Type=UKS/ALPHA (state 1.1)
 Fock matrix read from record            2200.2  Type=UKS/TOTAL (state 1.1)
 Orbital energies read from record       2200.2  Type=UKS/ALPHA (state 1.1)
 Density matrix read from record         2200.2  Type=UKS/CHARGE (state 1.1)

 Number of core orbitals:           5 (   5 )
 Number of closed-shell orbitals:  16 (  16 )

 Basis set MINAO-AUTO-PP generated.      Number of basis functions:   35 

 Polarized AO type:                A = (O Ot + (1-O)(1-Ot)) P12
 Orthogonalization method:         Symmetric (Loewdin)
 Localization functional:          L = sum[A,i] <i|n_A|i>^4 -> max

 Localization group 1:  21 orbitals, occupancy  2.000
 Iterative localization: IB/PM,    7 iter; Final gradient 0.17E-08

 Bond order analysis:       [THRPRINT= 0.020]

   CEN ATOM   CEN ATOM     WIBERG.BO      RENORM.BO
     1   C  -   2   C       0.995628       0.993293
     1   C  -   5   H       0.964157       0.987707
     1   C  -   6   H       0.959532       0.982870
     1   C  -   7   H       0.959532       0.982870

     2   C  -   1   C       0.995628       0.993293
     2   C  -   9   C       0.994996       0.977585
     2   C  -   8   C       0.994996       0.977585
     2   C  -   3   O       0.932416       0.953046

     3   O  -   2   C       0.932416       0.953046
     3   O  -   4   H       0.863608       0.978232
     3   O  -   9   C       0.025228       0.012958
     3   O  -   8   C       0.025228       0.012958

     4   H  -   3   O       0.863608       0.978232

     5   H  -   1   C       0.964157       0.987707

     6   H  -   1   C       0.959532       0.982870

     7   H  -   1   C       0.959532       0.982870

     8   C  -   2   C       0.994996       0.977585
     8   C  -  14   H       0.963742       0.983448
     8   C  -  12   H       0.960647       0.983879
     8   C  -  10   H       0.959841       0.982726
     8   C  -   3   O       0.025228       0.012958

     9   C  -   2   C       0.994996       0.977585
     9   C  -  15   H       0.963742       0.983448
     9   C  -  13   H       0.960647       0.983879
     9   C  -  11   H       0.959841       0.982726
     9   C  -   3   O       0.025228       0.012958

    10   H  -   8   C       0.959841       0.982726

    11   H  -   9   C       0.959841       0.982726

    12   H  -   8   C       0.960647       0.983879

    13   H  -   9   C       0.960647       0.983879

    14   H  -   8   C       0.963742       0.983448

    15   H  -   9   C       0.963742       0.983448


 Valency analysis:

   CEN ATOM   TOT.VALENCE
     1   C       3.935340
     2   C       3.928728
     3   O       1.907470
     4   H       0.881608
     5   H       0.982207
     6   H       0.979589
     7   H       0.979589
     8   C       3.937975
     9   C       3.937975
    10   H       0.979466
    11   H       0.979466
    12   H       0.981265
    13   H       0.981265
    14   H       0.983740
    15   H       0.983740

 Total charge composition:

   CEN ATOM         s          p       ELECTRONS ->P.CHARGE
     1   C       3.02925    3.38103      6.41028   -0.41028
     2   C       2.92928    2.81223      5.74151    0.25849
     3   O       3.63213    4.94578      8.57791   -0.57791
     4   H       0.65592                 0.65592    0.34408
     5   H       0.86661                 0.86661    0.13339
     6   H       0.85713                 0.85713    0.14287
     7   H       0.85713                 0.85713    0.14287
     8   C       3.03496    3.38948      6.42444   -0.42444
     9   C       3.03496    3.38948      6.42444   -0.42444
    10   H       0.85670                 0.85670    0.14330
    11   H       0.85670                 0.85670    0.14330
    12   H       0.86312                 0.86312    0.13688
    13   H       0.86312                 0.86312    0.13688
    14   H       0.87248                 0.87248    0.12752
    15   H       0.87248                 0.87248    0.12752

 Total charge composition, AO contributions:

   CEN ATOM SHL      SPHERICAL COMPONENTS
     1   C  1s       1.99122
     1   C  2s       1.03803
     1   C  2p       1.04107    1.16431    1.17566

     2   C  1s       1.99282
     2   C  2s       0.93646
     2   C  2p       1.01228    0.78719    1.01275

     3   O  1s       1.99717
     3   O  2s       1.63496
     3   O  2p       1.48201    1.50281    1.96097

     4   H  1s       0.65592

     5   H  1s       0.86661

     6   H  1s       0.85713

     7   H  1s       0.85713

     8   C  1s       1.99132
     8   C  2s       1.04364
     8   C  2p       1.14574    1.14627    1.09747

     9   C  1s       1.99132
     9   C  2s       1.04364
     9   C  2p       1.14574    1.14627    1.09747

    10   H  1s       0.85670

    11   H  1s       0.85670

    12   H  1s       0.86312

    13   H  1s       0.86312

    14   H  1s       0.87248

    15   H  1s       0.87248

 Summary of localized orbital composition:   [THRPRINT= 0.020]

   ORB  GRP  ORB.ENERGY      CENTERS/CHARGES
     1   1   -19.403188      O  3   2.000
     2   1   -10.471001      C  2   2.000
     3   1   -10.378589      C  8   2.000
     4   1   -10.378589      C  9   2.000
     5   1   -10.372109      C  1   2.000
     6   1    -0.855668      O  3   1.346   H  4   0.646
     7   1    -0.815539      O  3   1.285   C  2   0.698
     8   1    -0.665014      O  3   1.983
     9   1    -0.656021      C  9   1.007   C  2   0.978
    10   1    -0.656021      C  8   1.007   C  2   0.978
    11   1    -0.655224      C  2   0.989   C  1   0.988   (other: 0.022)
    12   1    -0.584321      C  8   1.132   H 12   0.854
    13   1    -0.584321      C  9   1.132   H 13   0.854
    14   1    -0.582374      C  9   1.123   H 15   0.866
    15   1    -0.582374      C  8   1.123   H 14   0.866
    16   1    -0.580496      C  1   1.128   H  5   0.860
    17   1    -0.578280      C  8   1.141   H 10   0.849
    18   1    -0.578280      C  9   1.141   H 11   0.849
    19   1    -0.573101      C  1   1.140   H  6   0.849
    20   1    -0.573101      C  1   1.140   H  7   0.849
    21   1    -0.399283      O  3   1.961   (other: 0.039)

 Localized orbitals saved to record      2200.2  (orbital set 4)


 **********************************************************************************************************************************
 DATASETS  * FILE   NREC   LENGTH (MB)   RECORD NAMES
              1      20    37756.57       500      610      700      900      950      970     1000      129      960     1100   
                                          VAR    BASINP    GEOM    SYMINP    ZMAT    AOBASIS   BASIS     P2S    ABASIS      S 
                                         1400     1410     1200     1210     1080     1600     1650     1300     1700     1800   
                                           T        V       H0       H01     AOSYM     SMH    MOLCAS    ERIS     OPER     GRID   

              2       5       19.57       700     1000      520     1800     2200   
                                         GEOM     BASIS   MCVARS    GRID      UKS  

 PROGRAMS   *        TOTAL      IBBA       UKS       INT
 CPU TIMES  *      4750.90      0.44   3591.76   1158.52
 REAL TIME  *     22516.65 SEC
 DISK USED  *       168.05 GB      
 **********************************************************************************************************************************
 Molecular orbitals read from record     2200.2  Type=UKS/LOCAL(IBO)  
 Occupation numbers read from record     2200.2  Type=UKS/LOCAL(IBO)  
 Orbital energies read from record       2200.2  Type=UKS/LOCAL(IBO)  
 Redundancy group numbers read from rec  2200.2  Type=UKS/BETA (state 1.1)

 IBBA/QZVP energy=      0.000000000000

        UKS-SCF 
   -233.63055080
 **********************************************************************************************************************************
 Molpro calculation terminated
