
 Primary working directories    : /tmp/sb13343
 Secondary working directories  : /tmp/sb13343
 Wavefunction directory         : /panfs/panasas01/chem/sb13343/wfu/
 Main file repository           : /tmp/sb13343/

 SHA1      : b4a5b34a9e711420743f49e6833241d17c61fb3c
 NAME      : 2099.9.b4a5b34
 ARCHNAME  : linux/x86_64_openmp
 FC        : /cm/shared/languages/GCC-6.1/bin/gfortran
 BLASLIB   : -lblas
 id        : simonbennie

 Nodes     nprocs
 node32-027    1

 Using customized tuning parameters: mindgm=1; mindgv=20; mindgc=4; mindgr=1; noblas=0; minvec=7
 default implementation of scratch files=df  

 memory,500,m
 geomtyp=xyz
 nosym
 noorient
 geometry={
 C          0.00000        0.00000        0.00000
 C          1.54025       -0.00009       -0.00004
 C         -0.51333        1.45219       -0.00005
 C         -0.51349       -0.72611       -1.25756
 C         -0.51342       -0.72599        1.25765
 H         -1.60999        1.48489       -0.00002
 H         -1.61015       -0.74237       -1.28580
 H         -1.61008       -0.74225        1.28596
 H         -0.16312        1.99638        0.88591
 H         -0.16316        1.99630       -0.88608
 H         -0.16333       -0.23096       -2.17186
 H         -0.16339       -1.76551       -1.28580
 H         -0.16332       -1.76539        1.28596
 H         -0.16320       -0.23077        2.17189
 H          1.93652       -1.02316       -0.00001
 H          1.93658        0.51138       -0.88607
 H          1.93663        0.51146        0.88592
 }
 basis={ default,svp }
 {uks,M08-HX,direct;wf,42,1,0}
 {ibba,bonds=1}

 Variables initialized (895), CPU time= 0.00 sec
 Commands  initialized (725), CPU time= 0.02 sec, 591 directives.
 Default parameters read. Elapsed time= 0.08 sec

 Checking input...
 Passed
1


                                         ***  PROGRAM SYSTEM MOLPRO  ***
                                       Copyright, TTI GmbH Stuttgart, 2015
                                    Version 2099.9 linked May 26 2017 16:03:21


 **********************************************************************************************************************************
 LABEL *                                                                                 
  64 bit serial version                                                                  DATE: 08-Jun-17          TIME: 22:19:08  
 **********************************************************************************************************************************

 SHA1:             b4a5b34a9e711420743f49e6833241d17c61fb3c
 **********************************************************************************************************************************
 SETTING GEOMTYP        =    XYZ

 Variable memory set to  500000000 words,  buffer space 

 ZSYMEL=NOSYM

 SETTING BASIS          =    SVP


 Recomputing integrals since basis changed


 Using spherical harmonics

 Library entry C      S def2-SVP             selected for orbital group  1
 Library entry C      P def2-SVP             selected for orbital group  1
 Library entry C      D def2-SVP             selected for orbital group  1
 Library entry H      S def2-SVP             selected for orbital group  2
 Library entry H      P def2-SVP             selected for orbital group  2


 PROGRAM * SEWARD (Integral evaluation for generally contracted gaussian basis sets)     Author: Roland Lindh, 1990

 Geometry written to block  1 of record 700


 Point group  C1  



 ATOMIC COORDINATES

 NR  ATOM    CHARGE       X              Y              Z

   1  C       6.00    0.000000000    0.000000000    0.000000000
   2  C       6.00    2.910650663   -0.000170075   -0.000075589
   3  C       6.00   -0.970053112    2.744241381   -0.000094486
   4  C       6.00   -0.970355468   -1.372149036   -2.376443985
   5  C       6.00   -0.970223187   -1.371922269    2.376614061
   6  H       1.00   -3.042440163    2.806035425   -0.000037795
   7  H       1.00   -3.042742519   -1.402875983   -2.429809851
   8  H       1.00   -3.042610239   -1.402649216    2.430112207
   9  H       1.00   -0.308252125    3.772611441    1.674127271
  10  H       1.00   -0.308327714    3.772460262   -1.674448524
  11  H       1.00   -0.308648968   -0.436451146   -4.104220581
  12  H       1.00   -0.308762351   -3.336330370   -2.429809851
  13  H       1.00   -0.308630071   -3.336103603    2.430112207
  14  H       1.00   -0.308403304   -0.436092098    4.104277273
  15  H       1.00    3.659492435   -1.933492182   -0.000018897
  16  H       1.00    3.659605818    0.966368146   -1.674429627
  17  H       1.00    3.659700305    0.966519324    1.674146168

 Bond lengths in Bohr (Angstrom)

  1- 2  2.910650669   1- 3  2.910646630   1- 4  2.910647475   1- 5  2.910635350   2-15  2.073282028
       ( 1.540250003)       ( 1.540247866)       ( 1.540248313)       ( 1.540241896)       ( 1.097133601)

  2-16  2.073304464   2-17  2.073302258   3- 6  2.073308129   3- 9  2.073293037   3-10  2.073300754
       ( 1.097145474)       ( 1.097144306)       ( 1.097147413)       ( 1.097139427)       ( 1.097143510)

  4- 7  2.073301752   4-11  2.073306055   4-12  2.073297296   5- 8  2.073305161   5-13  2.073300706
       ( 1.097144038)       ( 1.097146316)       ( 1.097141681)       ( 1.097145842)       ( 1.097143485)

  5-14  2.073307464
       ( 1.097147061)

 Bond angles

  1- 2-15  111.17643746   1- 2-16  111.17582452   1- 2-17  111.17607088   1- 3- 6  111.17575783

  1- 3- 9  111.17644989   1- 3-10  111.17611121   1- 4- 7  111.17614317   1- 4-11  111.17631877

  1- 4-12  111.17675056   1- 5- 8  111.17663037   1- 5-13  111.17645588   1- 5-14  111.17672823

  2-1-3  109.47117711   2-1-4  109.47117360   2-1-5  109.47107360   3-1-4  109.47144919

  3- 1- 5  109.47121161   4- 1- 5  109.47123870   6- 3- 9  107.71338639   6- 3-10  107.71391335

  7- 4-11  107.71323113   7- 4-12  107.71354587   8- 5-13  107.71328790   8- 5-14  107.71342022

  9- 3-10  107.71420977  11- 4-12  107.71378459  13- 5-14  107.71321488  15- 2-16  107.71365571

 15- 2-17  107.71411853  16- 2-17  107.71372051

 NUCLEAR CHARGE:                   42
 NUMBER OF PRIMITIVE AOS:         209
 NUMBER OF SYMMETRY AOS:          204
 NUMBER OF CONTRACTIONS:          130   ( 130A   )
 NUMBER OF CORE ORBITALS:           5   (   5A   )
 NUMBER OF VALENCE ORBITALS:       32   (  32A   )


 NUCLEAR REPULSION ENERGY  197.66618863


 Eigenvalues of metric

         1 0.175E-02 0.577E-02 0.577E-02 0.577E-02 0.252E-01 0.252E-01 0.252E-01 0.256E-01


 Contracted 2-electron integrals neglected if value below      1.0D-11
 AO integral compression algorithm  1   Integral accuracy      1.0D-11

     139.198 MB (compressed) written to integral file ( 45.3%)


 NUMBER OF SORTED TWO-ELECTRON INTEGRALS:   36256870.     BUFFER LENGTH:  32768
 NUMBER OF SEGMENTS:   3  SEGMENT LENGTH:   15998004      RECORD LENGTH: 524288

 Memory used in sort:      16.56 MW

 SORT1 READ    38373714. AND WROTE    33465425. INTEGRALS IN     97 RECORDS. CPU TIME:     0.48 SEC, REAL TIME:     0.95 SEC
 SORT2 READ    33465425. AND WROTE    36256870. INTEGRALS IN    531 RECORDS. CPU TIME:     0.75 SEC, REAL TIME:     0.97 SEC

 FILE SIZES:   FILE 1:   170.1 MBYTE,  FILE 4:   406.9 MBYTE,   TOTAL:    576.9 MBYTE

 OPERATOR DM      FOR CENTER  0  COORDINATES:    0.000000    0.000000    0.000000


 **********************************************************************************************************************************
 DATASETS  * FILE   NREC   LENGTH (MB)   RECORD NAMES
              1      19      153.85       500      610      700      900      950      970     1000      129      960     1100   
                                          VAR    BASINP    GEOM    SYMINP    ZMAT    AOBASIS   BASIS     P2S    ABASIS      S 
                                         1400     1410     1200     1210     1080     1600     1650     1300     1700   
                                           T        V       H0       H01     AOSYM     SMH    MOLCAS    ERIS     OPER   

 PROGRAMS   *        TOTAL       INT
 CPU TIMES  *         5.01      4.87
 REAL TIME  *        10.00 SEC
 DISK USED  *       577.52 MB      
 **********************************************************************************************************************************

 Density functional group M08-HX=XC-M08-HX
 Functional: XC-M08-HX(via MFM 1.6)                                            Gradient terms: 1
 Use grid at  1800.2


 Exact exchange will be calculated, factor:  0.5223

 Functional: XC-M08-HX                 Factor:  1.0000

 Generated new metagrid on record  1800.2 with target accuracy 1.0D-06 and 57016 points in CPU time    1.7
 Computed new grid on record 1800.1 in CPU time    2.0
  107513 words reserved for DFT integration

 PROGRAM * UKS-SCF (Unrestricted Kohn-Sham)     Authors: W. Meyer, H.-J. Werner, P.J. Knowles, 1993

 NUMBER OF ELECTRONS:      21+   21-    SPACE SYMMETRY=1    SPIN SYMMETRY: Singlet 
 CONVERGENCE THRESHOLDS:    1.00E-05 (Density)    1.00E-06 (Energy)
 MAX. NUMBER OF ITERATIONS:       60
 INTERPOLATION TYPE:            DIIS
 INTERPOLATION STEPS:              2 (START)      1 (STEP)
 LEVEL SHIFTS:                 -0.20 (ALPHA)  -0.20 (BETA) 



 Use fine grid record 1800.2 for energy threshold  1.0D-06
 Orbital guess generated from atomic densities. Full valence occupancy:   21

 Molecular orbital dump at record        2200.2

 Initial alpha occupation  21
 Initial beta  occupation  21

 ITERATION    DDIFF          GRAD             ENERGY        2-EL.EN.            DIPOLE MOMENTS         DIIS
    1      0.000D+00      0.000D+00      -197.47164555    560.906895   -0.00004   -0.00039   -0.00000    0
    2      0.636D-02      0.323D-02      -197.56827692    549.586957    0.01344   -0.00775    0.00000    1
    3      0.158D-02      0.996D-03      -197.57609393    551.558237    0.01412   -0.00718   -0.00000    2
    4      0.111D-02      0.246D-03      -197.57739009    551.341816    0.01718   -0.00792   -0.00000    3
    5      0.364D-03      0.673D-04      -197.57748682    551.343637    0.01794   -0.00798   -0.00000    4
    6      0.153D-03      0.182D-04      -197.57749352    551.325280    0.01822   -0.00803   -0.00000    5
    7      0.283D-04      0.291D-05      -197.57749373    551.326095    0.01832   -0.00805   -0.00000    6
    8      0.298D-05      0.437D-06      -197.57749374    551.326187    0.01833   -0.00805   -0.00000    5
    9      0.677D-06      0.947D-07      -197.57749374    551.326170    0.01833   -0.00805   -0.00000    5

 Final alpha occupancy:  21
 Final beta  occupancy:  21

 !UKS STATE 1.1 Energy               -197.577493740650
 Nuclear energy                       197.66618863
 One-electron energy                 -655.13387811
 Two-electron energy                  275.66308497
 Density functional                   -15.77288923     XC-M08-HX=-15.77288923
 Virial quotient                       -1.01475786
 !UKS STATE 1.1 Dipole moment           0.01833153    -0.00804954    -0.00000036
 Dipole moment /Debye                   0.04659106    -0.02045855    -0.00000091

 Orbital energies for positive spin:

         1.1          2.1          3.1          4.1          5.1          6.1          7.1          8.1          9.1         10.1
    -10.554525   -10.530203   -10.529099   -10.529087   -10.529050    -0.916516    -0.767640    -0.766879    -0.766778    -0.605546

        11.1         12.1         13.1         14.1         15.1         16.1         17.1         18.1         19.1         20.1
     -0.516030    -0.515227    -0.515172    -0.463416    -0.462439    -0.424493    -0.424020    -0.423392    -0.379888    -0.379349

        21.1         22.1         23.1
     -0.379318     0.060089     0.120895

 Orbital energies for negative spin:

         1.1          2.1          3.1          4.1          5.1          6.1          7.1          8.1          9.1         10.1
    -10.554525   -10.530203   -10.529099   -10.529087   -10.529050    -0.916516    -0.767640    -0.766879    -0.766778    -0.605546

        11.1         12.1         13.1         14.1         15.1         16.1         17.1         18.1         19.1         20.1
     -0.516030    -0.515227    -0.515172    -0.463416    -0.462439    -0.424493    -0.424020    -0.423392    -0.379888    -0.379349

        21.1         22.1         23.1
     -0.379318     0.060089     0.120895

 HOMO     21.1    -0.379318 =     -10.3218eV
 LUMO     22.1     0.060089 =       1.6351eV
 LUMO-HOMO         0.439407 =      11.9569eV

 EXPECTATION VALUE OF S**2:            -0.00000000

 Natural orbitals saved to record    2200.2 (Orbital set 3)

 Orbital spaces for UNO-CAS (Min. occupation: 0.020  Max. occupation: 1.980):

 Closed:       21
 Active:        0


 **********************************************************************************************************************************
 DATASETS  * FILE   NREC   LENGTH (MB)   RECORD NAMES
              1      20      155.67       500      610      700      900      950      970     1000      129      960     1100   
                                          VAR    BASINP    GEOM    SYMINP    ZMAT    AOBASIS   BASIS     P2S    ABASIS      S 
                                         1400     1410     1200     1210     1080     1600     1650     1300     1700     1800   
                                           T        V       H0       H01     AOSYM     SMH    MOLCAS    ERIS     OPER     GRID   

              2       5        3.74       700     1000      520     1800     2200   
                                         GEOM     BASIS   MCVARS    GRID      UKS  

 PROGRAMS   *        TOTAL       UKS       INT
 CPU TIMES  *        68.69     63.69      4.87
 REAL TIME  *        74.38 SEC
 DISK USED  *       577.52 MB      
 **********************************************************************************************************************************


 PROGRAM * Intrinsic Basis Bonding Analysis (IBBA)          Author: G. Knizia

 Molecular orbitals read from record     2200.2  Type=UKS/ALPHA (state 1.1)
 Fock matrix read from record            2200.2  Type=UKS/TOTAL (state 1.1)
 Orbital energies read from record       2200.2  Type=UKS/ALPHA (state 1.1)
 Density matrix read from record         2200.2  Type=UKS/CHARGE (state 1.1)

 Number of core orbitals:           5 (   5 )
 Number of closed-shell orbitals:  16 (  16 )

 Basis set MINAO-AUTO-PP generated.      Number of basis functions:   37 

 Polarized AO type:                A = (O Ot + (1-O)(1-Ot)) P12
 Orthogonalization method:         Symmetric (Loewdin)
 Localization functional:          L = sum[A,i] <i|n_A|i>^4 -> max

 Localization group 1:  21 orbitals, occupancy  2.000
 Iterative localization: IB/PM,    7 iter; Final gradient 0.29E-08

 Bond order analysis:       [THRPRINT= 0.020]

   CEN ATOM   CEN ATOM     WIBERG.BO      RENORM.BO
     1   C  -   2   C       0.997060       0.998472
     1   C  -   3   C       0.996498       0.997956
     1   C  -   5   C       0.996364       0.997766
     1   C  -   4   C       0.996363       0.997765

     2   C  -   1   C       0.997060       0.998472
     2   C  -  16   H       0.965702       0.982494
     2   C  -  17   H       0.965702       0.982494
     2   C  -  15   H       0.965048       0.982768

     3   C  -   1   C       0.996498       0.997956
     3   C  -   6   H       0.965844       0.982702
     3   C  -  10   H       0.965532       0.982652
     3   C  -   9   H       0.965532       0.982652

     4   C  -   1   C       0.996363       0.997765
     4   C  -   7   H       0.965871       0.982669
     4   C  -  12   H       0.965753       0.982600
     4   C  -  11   H       0.965497       0.982725

     5   C  -   1   C       0.996364       0.997766
     5   C  -   8   H       0.965871       0.982668
     5   C  -  13   H       0.965753       0.982600
     5   C  -  14   H       0.965497       0.982724

     6   H  -   3   C       0.965844       0.982702

     7   H  -   4   C       0.965871       0.982669

     8   H  -   5   C       0.965871       0.982668

     9   H  -   3   C       0.965532       0.982652

    10   H  -   3   C       0.965532       0.982652

    11   H  -   4   C       0.965497       0.982725

    12   H  -   4   C       0.965753       0.982600

    13   H  -   5   C       0.965753       0.982600

    14   H  -   5   C       0.965497       0.982724

    15   H  -   2   C       0.965048       0.982768

    16   H  -   2   C       0.965702       0.982494

    17   H  -   2   C       0.965702       0.982494


 Valency analysis:

   CEN ATOM   TOT.VALENCE
     1   C       3.993664
     2   C       3.943505
     3   C       3.943654
     4   C       3.943770
     5   C       3.943771
     6   H       0.984441
     7   H       0.984463
     8   H       0.984463
     9   H       0.984169
    10   H       0.984169
    11   H       0.984072
    12   H       0.984406
    13   H       0.984406
    14   H       0.984072
    15   H       0.983595
    16   H       0.984501
    17   H       0.984500

 Total charge composition:

   CEN ATOM         s          p       ELECTRONS ->P.CHARGE
     1   C       2.91885    3.00909      5.92794    0.07206
     2   C       3.02080    3.37285      6.39365   -0.39365
     3   C       3.02075    3.37315      6.39391   -0.39391
     4   C       3.02097    3.37373      6.39471   -0.39471
     5   C       3.02097    3.37373      6.39470   -0.39470
     6   H       0.87526                 0.87526    0.12474
     7   H       0.87535                 0.87535    0.12465
     8   H       0.87535                 0.87535    0.12465
     9   H       0.87418                 0.87418    0.12582
    10   H       0.87418                 0.87418    0.12582
    11   H       0.87379                 0.87379    0.12621
    12   H       0.87512                 0.87512    0.12488
    13   H       0.87513                 0.87513    0.12487
    14   H       0.87379                 0.87379    0.12621
    15   H       0.87192                 0.87192    0.12808
    16   H       0.87550                 0.87550    0.12450
    17   H       0.87550                 0.87550    0.12450

 Total charge composition, AO contributions:

   CEN ATOM SHL      SPHERICAL COMPONENTS
     1   C  1s       1.99185
     1   C  2s       0.92700
     1   C  2p       1.00388    1.00296    1.00225

     2   C  1s       1.99088
     2   C  2s       1.02992
     2   C  2p       1.05625    1.16008    1.15653

     3   C  1s       1.99088
     3   C  2s       1.02988
     3   C  2p       1.14630    1.06832    1.15853

     4   C  1s       1.99088
     4   C  2s       1.03009
     4   C  2p       1.14639    1.13536    1.09198

     5   C  1s       1.99088
     5   C  2s       1.03009
     5   C  2p       1.14639    1.13537    1.09197

     6   H  1s       0.87526

     7   H  1s       0.87535

     8   H  1s       0.87535

     9   H  1s       0.87418

    10   H  1s       0.87418

    11   H  1s       0.87379

    12   H  1s       0.87512

    13   H  1s       0.87513

    14   H  1s       0.87379

    15   H  1s       0.87192

    16   H  1s       0.87550

    17   H  1s       0.87550

 Summary of localized orbital composition:   [THRPRINT= 0.020]

   ORB  GRP  ORB.ENERGY      CENTERS/CHARGES
     1   1   -10.454809      C  1   2.000
     2   1   -10.413092      C  2   2.000
     3   1   -10.411988      C  4   2.000
     4   1   -10.411988      C  5   2.000
     5   1   -10.411970      C  3   2.000
     6   1    -0.627854      C  2   1.006   C  1   0.969   (other: 0.024)
     7   1    -0.626498      C  3   1.007   C  1   0.968   (other: 0.024)
     8   1    -0.625656      C  5   1.009   C  1   0.967   (other: 0.024)
     9   1    -0.625651      C  4   1.009   C  1   0.967   (other: 0.024)
    10   1    -0.567234      C  2   1.127   H 15   0.864
    11   1    -0.564390      C  4   1.125   H 11   0.866
    12   1    -0.564390      C  5   1.125   H 14   0.866
    13   1    -0.564032      C  4   1.124   H 12   0.868
    14   1    -0.564030      C  5   1.124   H 13   0.868
    15   1    -0.563875      C  3   1.125   H  9   0.867
    16   1    -0.563873      C  3   1.125   H 10   0.867
    17   1    -0.563483      C  2   1.123   H 17   0.868
    18   1    -0.563480      C  2   1.123   H 16   0.868
    19   1    -0.563459      C  3   1.124   H  6   0.868
    20   1    -0.563164      C  4   1.124   H  7   0.868
    21   1    -0.563163      C  5   1.124   H  8   0.868

 Localized orbitals saved to record      2200.2  (orbital set 4)


 **********************************************************************************************************************************
 DATASETS  * FILE   NREC   LENGTH (MB)   RECORD NAMES
              1      20      155.67       500      610      700      900      950      970     1000      129      960     1100   
                                          VAR    BASINP    GEOM    SYMINP    ZMAT    AOBASIS   BASIS     P2S    ABASIS      S 
                                         1400     1410     1200     1210     1080     1600     1650     1300     1700     1800   
                                           T        V       H0       H01     AOSYM     SMH    MOLCAS    ERIS     OPER     GRID   

              2       5        3.88       700     1000      520     1800     2200   
                                         GEOM     BASIS   MCVARS    GRID      UKS  

 PROGRAMS   *        TOTAL      IBBA       UKS       INT
 CPU TIMES  *        68.73      0.03     63.69      4.87
 REAL TIME  *        74.51 SEC
 DISK USED  *       577.52 MB      
 **********************************************************************************************************************************
 Molecular orbitals read from record     2200.2  Type=UKS/LOCAL(IBO)  
 Occupation numbers read from record     2200.2  Type=UKS/LOCAL(IBO)  
 Orbital energies read from record       2200.2  Type=UKS/LOCAL(IBO)  
 Redundancy group numbers read from rec  2200.2  Type=UKS/BETA (state 1.1)

 IBBA/SVP energy=      0.000000000000

        UKS-SCF 
   -197.57749374
 **********************************************************************************************************************************
 Molpro calculation terminated
