
 Primary working directories    : /tmp/sb13343
 Secondary working directories  : /tmp/sb13343
 Wavefunction directory         : /panfs/panasas01/chem/sb13343/wfu/
 Main file repository           : /tmp/sb13343/

 SHA1      : b4a5b34a9e711420743f49e6833241d17c61fb3c
 NAME      : 2099.9.b4a5b34
 ARCHNAME  : linux/x86_64_openmp
 FC        : /cm/shared/languages/GCC-6.1/bin/gfortran
 BLASLIB   : -lblas
 id        : simonbennie

 Nodes     nprocs
 node32-028    1

 Using customized tuning parameters: mindgm=1; mindgv=20; mindgc=4; mindgr=1; noblas=0; minvec=7
 default implementation of scratch files=df  

 memory,500,m
 geomtyp=xyz
 nosym
 noorient
 geometry={
 H         -1.13405        1.76167        0.00000
 C         -1.32915        0.67205        0.00000
 C         -0.06360       -0.12883        0.00000
 C          0.67426       -0.31636        1.28970
 C          0.67426       -0.31636       -1.28970
 H         -1.94006        0.46750        0.88859
 H         -1.94006        0.46750       -0.88859
 H          1.28359        0.56876        1.55544
 H         -0.01165       -0.48291        2.13019
 H          1.36783       -1.16569        1.24157
 H          1.28359        0.56876       -1.55544
 H         -0.01165       -0.48291       -2.13019
 H          1.36783       -1.16569       -1.24157
 }
 basis={ default,sto-3g }
 {ks,PBE0,direct;wf,33,1,1}
 {ibba,bonds=1}

 Variables initialized (895), CPU time= 0.00 sec
 Commands  initialized (725), CPU time= 0.02 sec, 591 directives.
 Default parameters read. Elapsed time= 0.08 sec

 Checking input...
 Passed
1


                                         ***  PROGRAM SYSTEM MOLPRO  ***
                                       Copyright, TTI GmbH Stuttgart, 2015
                                    Version 2099.9 linked May 26 2017 16:03:21


 **********************************************************************************************************************************
 LABEL *                                                                                 
  64 bit serial version                                                                  DATE: 08-Jun-17          TIME: 20:25:29  
 **********************************************************************************************************************************

 SHA1:             b4a5b34a9e711420743f49e6833241d17c61fb3c
 **********************************************************************************************************************************
 SETTING GEOMTYP        =    XYZ

 Variable memory set to  500000000 words,  buffer space 

 ZSYMEL=NOSYM

 SETTING BASIS          =    STO-3G


 Recomputing integrals since basis changed


 Using spherical harmonics

 Library entry H      S STO-3G               selected for orbital group  1
 Library entry C      S STO-3G               selected for orbital group  2
 Library entry C      P STO-3G               selected for orbital group  2


 PROGRAM * SEWARD (Integral evaluation for generally contracted gaussian basis sets)     Author: Roland Lindh, 1990

 Geometry written to block  1 of record 700


 Point group  C1  



 ATOMIC COORDINATES

 NR  ATOM    CHARGE       X              Y              Z

   1  H       1.00   -2.143043912    3.329073822    0.000000000
   2  C       6.00   -2.511729478    1.269990442    0.000000000
   3  C       6.00   -0.120186582   -0.243453417    0.000000000
   4  C       6.00    1.274166737   -0.597833757    2.437179783
   5  C       6.00    1.274166737   -0.597833757   -2.437179783
   6  H       1.00   -3.666182065    0.883446963    1.679191737
   7  H       1.00   -3.666182065    0.883446963   -1.679191737
   8  H       1.00    2.425633556    1.074800631    2.939355603
   9  H       1.00   -0.022015309   -0.912567643    4.025475693
  10  H       1.00    2.584824085   -2.202834846    2.346227264
  11  H       1.00    2.425633556    1.074800631   -2.939355603
  12  H       1.00   -0.022015309   -0.912567643   -4.025475693
  13  H       1.00    2.584824085   -2.202834846   -2.346227264

 Bond lengths in Bohr (Angstrom)

 1-2  2.091830159  2-3  2.830192527  2-6  2.074092940  2-7  2.074092940  3-4  2.830132841
     ( 1.106948849)     ( 1.497673388)     ( 1.097562717)     ( 1.097562717)     ( 1.497641803)

  3- 5  2.830132841   4- 8  2.091832255   4- 9  2.074085151   4-10  2.074156104   5-11  2.091832255
       ( 1.497641803)       ( 1.106949959)       ( 1.097558596)       ( 1.097596142)       ( 1.106949959)

  5-12  2.074085151   5-13  2.074156104
       ( 1.097558596)       ( 1.097596142)

 Bond angles

  1-2-3  112.17549786   1-2-6  106.35284965   1-2-7  106.35284965   2-3-4  118.89987932

  2-3-5  118.89987932   3-2-6  111.75744418   3-2-7  111.75744418   3-4-8  112.19808176

  3- 4- 9  111.75014522   3- 4-10  111.74379558   3- 5-11  112.19808176   3- 5-12  111.75014522

  3- 5-13  111.74379558   4- 3- 5  118.89276928   6- 2- 7  108.11431090   8- 4- 9  106.34995457

  8- 4-10  106.34572146   9- 4-10  108.12296896  11- 5-12  106.34995457  11- 5-13  106.34572146

 12- 5-13  108.12296896

 NUCLEAR CHARGE:                   33
 NUMBER OF PRIMITIVE AOS:          87
 NUMBER OF SYMMETRY AOS:           87
 NUMBER OF CONTRACTIONS:           29   (  29A   )
 NUMBER OF CORE ORBITALS:           4   (   4A   )
 NUMBER OF VALENCE ORBITALS:       25   (  25A   )


 NUCLEAR REPULSION ENERGY  124.92676597


 Eigenvalues of metric

         1 0.210E+00 0.225E+00 0.225E+00 0.315E+00 0.353E+00 0.353E+00 0.362E+00 0.372E+00


 Contracted 2-electron integrals neglected if value below      1.0D-11
 AO integral compression algorithm  1   Integral accuracy      1.0D-11

     0.786 MB (compressed) written to integral file (100.0%)


 NUMBER OF SORTED TWO-ELECTRON INTEGRALS:      94830.     BUFFER LENGTH:  32768
 NUMBER OF SEGMENTS:   1  SEGMENT LENGTH:      94830      RECORD LENGTH: 524288

 Memory used in sort:       0.65 MW

 SORT1 READ      108770. AND WROTE       91348. INTEGRALS IN      1 RECORDS. CPU TIME:     0.01 SEC, REAL TIME:     0.01 SEC
 SORT2 READ       91348. AND WROTE       94830. INTEGRALS IN      3 RECORDS. CPU TIME:     0.01 SEC, REAL TIME:     0.02 SEC

 FILE SIZES:   FILE 1:    31.0 MBYTE,  FILE 4:     4.2 MBYTE,   TOTAL:     35.2 MBYTE

 OPERATOR DM      FOR CENTER  0  COORDINATES:    0.000000    0.000000    0.000000


 **********************************************************************************************************************************
 DATASETS  * FILE   NREC   LENGTH (MB)   RECORD NAMES
              1      19       30.62       500      610      700      900      950      970     1000      129      960     1100   
                                          VAR    BASINP    GEOM    SYMINP    ZMAT    AOBASIS   BASIS     P2S    ABASIS      S 
                                         1400     1410     1200     1210     1080     1600     1650     1300     1700   
                                           T        V       H0       H01     AOSYM     SMH    MOLCAS    ERIS     OPER   

 PROGRAMS   *        TOTAL       INT
 CPU TIMES  *         0.45      0.31
 REAL TIME  *         0.76 SEC
 DISK USED  *        35.68 MB      
 **********************************************************************************************************************************

 Density functional group PBE0=PBEX+PBEC
 Functional: PBEX(Automatically generated (new) PBEX)                          Gradient terms: 1
 Functional: PBEC(Automatically generated (new) PBEC)                          Gradient terms: 1
 Use grid at  1800.2


 Exact exchange will be calculated, factor:  0.2500

 Functional: PBEX                      Factor:  0.7500
 Functional: PBEC                      Factor:  1.0000

 Generated new metagrid on record  1800.2 with target accuracy 1.0D-06 and 45406 points in CPU time    1.3
 Computed new grid on record 1800.1 in CPU time    1.4
   27459 words reserved for DFT integration

 PROGRAM * RKS-SCF (Restricted open shell Kohn-Sham)     Authors: W. Meyer, H.-J. Werner, P.J. Knowles, 1993

 NUMBER OF ELECTRONS:      17+   16-    SPACE SYMMETRY=1    SPIN SYMMETRY: Doublet 
 CONVERGENCE THRESHOLDS:    1.00E-05 (Density)    1.00E-06 (Energy)
 MAX. NUMBER OF ITERATIONS:       60
 INTERPOLATION TYPE:            DIIS
 INTERPOLATION STEPS:              2 (START)      1 (STEP)
 LEVEL SHIFTS:                 -0.60 (CLOSED) -0.30 (OPEN) 



 Use fine grid record 1800.2 for energy threshold  1.0D-06
 Orbital guess generated from atomic densities. Full valence occupancy:   17

 Molecular orbital dump at record        2100.2

 Initial alpha occupancy:  17
 Initial beta  occupancy:  16
 Wave function symmetry:    1

 ITERATION    DDIFF          GRAD             ENERGY        2-EL.EN.            DIPOLE MOMENTS         DIIS   ORB.
    1      0.000D+00      0.000D+00      -155.49985332    399.959479    0.19579    0.39594   -0.00000    0    start
    2      0.000D+00      0.262D-01      -155.72576300    389.010418    0.01984    0.04028   -0.00000    1    diag,B
    3      0.494D-01      0.226D-02      -155.72820123    389.432863    0.03827    0.07750   -0.00000    2    diag,B
    4      0.387D-02      0.667D-03      -155.72875538    389.420821    0.03899    0.07893   -0.00000    3    diag,B
    5      0.164D-02      0.202D-03      -155.72881959    389.414005    0.03838    0.07770   -0.00000    4    diag,B
    6      0.646D-03      0.399D-04      -155.72882171    389.414236    0.03792    0.07679   -0.00000    5    diag,B
    7      0.947D-04      0.127D-04      -155.72882189    389.414413    0.03785    0.07663   -0.00000    6    fixocc
    8      0.375D-04      0.213D-05      -155.72882189    389.414423    0.03787    0.07668   -0.00000    7    diag,B
    9      0.770D-05      0.350D-06      -155.72882189    389.414428    0.03787    0.07667   -0.00000    0    orth

 Final alpha occupancy:  17
 Final beta  occupancy:  16

 !RKS STATE 1.1 Energy               -155.728821893549
 Nuclear energy                       124.92676597
 One-electron energy                 -456.44530795
 Two-electron energy                  194.70721393
 Density functional                   -18.91749385     PBEX=-23.78982481 PBEC= -1.07512525
 Virial quotient                       -1.01452783
 !RKS STATE 1.1 Dipole moment           0.03786767     0.07667084    -0.00000000
 Dipole moment /Debye                   0.09624372     0.19486507    -0.00000000

 Orbital energies:

         1.1          2.1          3.1          4.1          5.1          6.1          7.1          8.1          9.1         10.1
    -10.039490   -10.039486   -10.039459   -10.014208    -0.768811    -0.668608    -0.668600    -0.500198    -0.409416    -0.409414

        11.1         12.1         13.1         14.1         15.1         16.1         17.1         18.1         19.1
     -0.402981    -0.355606    -0.355572    -0.339518    -0.303538    -0.303533    -0.120789     0.405654     0.405663

 HOMO     17.1    -0.120789 =      -3.2868eV
 LUMO     18.1     0.405654 =      11.0384eV
 LUMO-HOMO         0.526443 =      14.3252eV


 **********************************************************************************************************************************
 DATASETS  * FILE   NREC   LENGTH (MB)   RECORD NAMES
              1      20       32.07       500      610      700      900      950      970     1000      129      960     1100   
                                          VAR    BASINP    GEOM    SYMINP    ZMAT    AOBASIS   BASIS     P2S    ABASIS      S 
                                         1400     1410     1200     1210     1080     1600     1650     1300     1700     1800   
                                           T        V       H0       H01     AOSYM     SMH    MOLCAS    ERIS     OPER     GRID   

              2       5        2.99       700     1000      520     1800     2100   
                                         GEOM     BASIS   MCVARS    GRID      RKS  

 PROGRAMS   *        TOTAL        KS       INT
 CPU TIMES  *         4.24      3.79      0.31
 REAL TIME  *         4.65 SEC
 DISK USED  *        35.68 MB      
 **********************************************************************************************************************************


 PROGRAM * Intrinsic Basis Bonding Analysis (IBBA)          Author: G. Knizia

 Molecular orbitals read from record     2100.2  Type=RKS/CANONICAL (state 1.1)
 Fock matrix read from record            2100.2  Type=RKS/TOTAL (state 1.1)
 Orbital energies read from record       2100.2  Type=RKS/CANONICAL (state 1.1)
 Density matrix read from record         2100.2  Type=RKS/CHARGE (state 1.1)

 Number of core orbitals:           4 (   4 )
 Number of closed-shell orbitals:  12 (  12 )
 Number of active  orbitals:        1 (   1 )

 Basis set MINAO-AUTO-PP generated.      Number of basis functions:   29 

 Polarized AO type:                A = (O Ot + (1-O)(1-Ot)) P12
 Orthogonalization method:         Symmetric (Loewdin)
 Localization functional:          L = sum[A,i] <i|n_A|i>^4 -> max

 Localization group 1:  16 orbitals, occupancy  2.000
 Iterative localization: IB/PM,    7 iter; Final gradient 0.10E-08

 Bond order analysis:       [THRPRINT= 0.020]

   CEN ATOM   CEN ATOM     WIBERG.BO      RENORM.BO
     1   H  -   2   C       0.934138       0.998782
     1   H  -   3   C       0.028440       0.206005

     2   C  -   3   C       1.056968       1.320319
     2   C  -   7   H       0.958516       0.990234
     2   C  -   6   H       0.958516       0.990234
     2   C  -   1   H       0.934138       0.998782

     3   C  -   2   C       1.056968       1.320319
     3   C  -   5   C       1.056958       1.320272
     3   C  -   4   C       1.056958       1.320272
     3   C  -   1   H       0.028440       0.206005
     3   C  -  11   H       0.028420       0.205863
     3   C  -   8   H       0.028420       0.205863

     4   C  -   3   C       1.056958       1.320272
     4   C  -   9   H       0.958537       0.990227
     4   C  -  10   H       0.958481       0.990246
     4   C  -   8   H       0.934157       0.998780

     5   C  -   3   C       1.056958       1.320272
     5   C  -  12   H       0.958537       0.990227
     5   C  -  13   H       0.958481       0.990246
     5   C  -  11   H       0.934157       0.998780

     6   H  -   2   C       0.958516       0.990234

     7   H  -   2   C       0.958516       0.990234

     8   H  -   4   C       0.934157       0.998780
     8   H  -   3   C       0.028420       0.205863

     9   H  -   4   C       0.958537       0.990227

    10   H  -   4   C       0.958481       0.990246

    11   H  -   5   C       0.934157       0.998780
    11   H  -   3   C       0.028420       0.205863

    12   H  -   5   C       0.958537       0.990227

    13   H  -   5   C       0.958481       0.990246


 Valency analysis:

   CEN ATOM   TOT.VALENCE
     1   H       0.972650
     2   C       3.934425
     3   C       3.293621
     4   C       3.934423
     5   C       3.934423
     6   H       0.980125
     7   H       0.980125
     8   H       0.972651
     9   H       0.980133
    10   H       0.980116
    11   H       0.972651
    12   H       0.980133
    13   H       0.980116
 Localization group 2:   1 orbitals, occupancy  1.000
 Iterative localization: IB/PM,    1 iter; Final gradient 0.00E+00

 Bond order analysis:       [THRPRINT= 0.020]

   CEN ATOM   CEN ATOM     WIBERG.BO      RENORM.BO
     1   H  -   3   C       0.058420       0.500000


     3   C  -   1   H       0.058420       0.500000
     3   C  -  11   H       0.058418       0.500000
     3   C  -   8   H       0.058418       0.500000





     8   H  -   3   C       0.058418       0.500000



    11   H  -   3   C       0.058418       0.500000




 Valency analysis:

   CEN ATOM   TOT.VALENCE
     1   H       0.066478
     2   C       0.004621
     3   C       0.257036
     4   C       0.004610
     5   C       0.004610
     6   H       0.013650
     7   H       0.013650
     8   H       0.066475
     9   H       0.013601
    10   H       0.013718
    11   H       0.066475
    12   H       0.013601
    13   H       0.013718

 Total charge composition:

   CEN ATOM         s          p       ELECTRONS ->P.CHARGE
     1   H       0.86904                 0.86904    0.13096
     2   C       2.99459    3.41330      6.40789   -0.40789
     3   C       2.97363    3.00019      5.97382    0.02618
     4   C       2.99458    3.41331      6.40789   -0.40789
     5   C       2.99458    3.41331      6.40789   -0.40789
     6   H       0.86589                 0.86589    0.13411
     7   H       0.86589                 0.86589    0.13411
     8   H       0.86905                 0.86905    0.13095
     9   H       0.86590                 0.86590    0.13410
    10   H       0.86590                 0.86590    0.13410
    11   H       0.86905                 0.86905    0.13095
    12   H       0.86590                 0.86590    0.13410
    13   H       0.86590                 0.86590    0.13410

 Total charge composition, AO contributions:

   CEN ATOM SHL      SPHERICAL COMPONENTS
     1   H  1s       0.86904

     2   C  1s       1.99158
     2   C  2s       1.00301
     2   C  2p       1.10423    1.13856    1.17052

     3   C  1s       1.99308
     3   C  2s       0.98055
     3   C  2p       1.00054    0.99844    1.00121

     4   C  1s       1.99158
     4   C  2s       1.00300
     4   C  2p       1.14675    1.16403    1.10253

     5   C  1s       1.99158
     5   C  2s       1.00300
     5   C  2p       1.14675    1.16403    1.10253

     6   H  1s       0.86589

     7   H  1s       0.86589

     8   H  1s       0.86905

     9   H  1s       0.86590

    10   H  1s       0.86590

    11   H  1s       0.86905

    12   H  1s       0.86590

    13   H  1s       0.86590

 Active orbital charges:

   CEN ATOM         s          p       ELECTRONS ->SPIN.DEN
     1   H       0.03442                 0.03442    0.03442
     2   C       0.00013    0.00218      0.00232    0.00232
     3   C       0.01740    0.83114      0.84854    0.84854
     4   C       0.00013    0.00218      0.00231    0.00231
     5   C       0.00013    0.00218      0.00231    0.00231
     6   H       0.00687                 0.00687    0.00687
     7   H       0.00687                 0.00687    0.00687
     8   H       0.03442                 0.03442    0.03442
     9   H       0.00685                 0.00685    0.00685
    10   H       0.00691                 0.00691    0.00691
    11   H       0.03442                 0.03442    0.03442
    12   H       0.00685                 0.00685    0.00685
    13   H       0.00691                 0.00691    0.00691

 Active orbital charges, AO contributions:

   CEN ATOM SHL      SPHERICAL COMPONENTS
     1   H  1s       0.03442

     2   C  1s       0.00000
     2   C  2s       0.00013
     2   C  2p       0.00000    0.00218    0.00000

     3   C  1s       0.00001
     3   C  2s       0.01739
     3   C  2p       0.16265    0.66849    0.00000

     4   C  1s       0.00000
     4   C  2s       0.00013
     4   C  2p       0.00079    0.00103    0.00036

     5   C  1s       0.00000
     5   C  2s       0.00013
     5   C  2p       0.00079    0.00103    0.00036

     6   H  1s       0.00687

     7   H  1s       0.00687

     8   H  1s       0.03442

     9   H  1s       0.00685

    10   H  1s       0.00691

    11   H  1s       0.03442

    12   H  1s       0.00685

    13   H  1s       0.00691

 Summary of localized orbital composition:   [THRPRINT= 0.020]

   ORB  GRP  ORB.ENERGY      CENTERS/CHARGES
     1   1    -9.925264      C  2   2.000
     2   1    -9.925260      C  5   2.000
     3   1    -9.925260      C  4   2.000
     4   1    -9.917284      C  3   2.000
     5   1    -0.554752      C  4   1.008   C  3   0.979
     6   1    -0.554752      C  5   1.008   C  3   0.979
     7   1    -0.554731      C  2   1.008   C  3   0.979
     8   1    -0.474360      C  2   1.127   H  1   0.831   C  3   0.039
     9   1    -0.474359      C  4   1.127   H  8   0.831   C  3   0.039
    10   1    -0.474359      C  5   1.127   H 11   0.831   C  3   0.039
    11   1    -0.473019      C  2   1.132   H  7   0.853
    12   1    -0.473019      C  2   1.132   H  6   0.853
    13   1    -0.473017      C  5   1.132   H 12   0.853
    14   1    -0.473017      C  4   1.132   H  9   0.853
    15   1    -0.472994      C  4   1.132   H 10   0.853
    16   1    -0.472994      C  5   1.132   H 13   0.853
    17   2    -0.011315      C  3   0.849   H  1   0.034   H 11   0.034   H  8   0.034   (other: 0.048)

 Localized orbitals saved to record      2100.2  (orbital set 2)


 **********************************************************************************************************************************
 DATASETS  * FILE   NREC   LENGTH (MB)   RECORD NAMES
              1      20       32.07       500      610      700      900      950      970     1000      129      960     1100   
                                          VAR    BASINP    GEOM    SYMINP    ZMAT    AOBASIS   BASIS     P2S    ABASIS      S 
                                         1400     1410     1200     1210     1080     1600     1650     1300     1700     1800   
                                           T        V       H0       H01     AOSYM     SMH    MOLCAS    ERIS     OPER     GRID   

              2       5        3.00       700     1000      520     1800     2100   
                                         GEOM     BASIS   MCVARS    GRID      RKS  

 PROGRAMS   *        TOTAL      IBBA        KS       INT
 CPU TIMES  *         4.27      0.02      3.79      0.31
 REAL TIME  *         4.76 SEC
 DISK USED  *        35.68 MB      
 **********************************************************************************************************************************
 Molecular orbitals read from record     2100.2  Type=RKS/LOCAL(IBO)  
 Occupation numbers read from record     2100.2  Type=RKS/LOCAL(IBO)  
 Orbital energies read from record       2100.2  Type=RKS/LOCAL(IBO)  
 Redundancy group numbers read from rec  2100.2  Type=RKS/LOCAL(IBO)  

 IBBA/STO-3G energy=      0.000000000000

        KS-SCF  
   -155.72882189
 **********************************************************************************************************************************
 Molpro calculation terminated
