
 Primary working directories    : /local
 Secondary working directories  : /local
 Wavefunction directory         : /local/
 Main file repository           : /local/

 SHA1      : b4a5b34a9e711420743f49e6833241d17c61fb3c
 NAME      : 2099.9.b4a5b34
 ARCHNAME  : linux/x86_64_openmp
 FC        : /cm/shared/languages/GCC-6.1/bin/gfortran
 BLASLIB   : -lblas
 id        : simonbennie

 Nodes     nprocs
 node47-008    1

 Using customized tuning parameters: mindgm=1; mindgv=20; mindgc=4; mindgr=1; noblas=0; minvec=7
 default implementation of scratch files=df  

 memory,500,m
 geomtyp=xyz
 nosym
 noorient
 geometry={
 C         -1.53233        0.02247        0.00000
 C         -0.00192        0.01421        0.00000
 O          0.37239        1.40356        0.00000
 H          1.34248        1.44036        0.00000
 H         -1.92991       -0.99819        0.00000
 H         -1.90797        0.54382       -0.88653
 H         -1.90797        0.54382        0.88653
 C          0.54303       -0.66466       -1.26580
 C          0.54303       -0.66466        1.26580
 H          0.17836       -0.14752       -2.15943
 H          0.17836       -0.14752        2.15943
 H          0.23752       -1.71600       -1.32280
 H          0.23752       -1.71600        1.32280
 H          1.64084       -0.63767       -1.28032
 H          1.64084       -0.63767        1.28032
 }
 basis={ default,svp }
 {uks,SOGGA11-X,direct;wf,42,1,0}
 {ibba,bonds=1}

 Variables initialized (895), CPU time= 0.01 sec
 Commands  initialized (725), CPU time= 0.01 sec, 591 directives.
 Default parameters read. Elapsed time= 0.95 sec

 Checking input...
 Passed
1


                                         ***  PROGRAM SYSTEM MOLPRO  ***
                                       Copyright, TTI GmbH Stuttgart, 2015
                                    Version 2099.9 linked May 26 2017 16:03:21


 **********************************************************************************************************************************
 LABEL *                                                                                 
  64 bit serial version                                                                  DATE: 12-Jun-17          TIME: 20:27:00  
 **********************************************************************************************************************************

 SHA1:             b4a5b34a9e711420743f49e6833241d17c61fb3c
 **********************************************************************************************************************************
 SETTING GEOMTYP        =    XYZ

 Variable memory set to  500000000 words,  buffer space 

 ZSYMEL=NOSYM

 SETTING BASIS          =    SVP


 Recomputing integrals since basis changed


 Using spherical harmonics

 Library entry C      S def2-SVP             selected for orbital group  1
 Library entry C      P def2-SVP             selected for orbital group  1
 Library entry C      D def2-SVP             selected for orbital group  1
 Library entry O      S def2-SVP             selected for orbital group  2
 Library entry O      P def2-SVP             selected for orbital group  2
 Library entry O      D def2-SVP             selected for orbital group  2
 Library entry H      S def2-SVP             selected for orbital group  3
 Library entry H      P def2-SVP             selected for orbital group  3


 PROGRAM * SEWARD (Integral evaluation for generally contracted gaussian basis sets)     Author: Roland Lindh, 1990

 Geometry written to block  1 of record 700


 Point group  C1  



 ATOMIC COORDINATES

 NR  ATOM    CHARGE       X              Y              Z

   1  C       6.00   -2.895684032    0.042462146    0.000000000
   2  C       6.00   -0.003628274    0.026853008    0.000000000
   3  O       8.00    0.703715112    2.652343999    0.000000000
   4  H       1.00    2.536919528    2.721885921    0.000000000
   5  H       1.00   -3.647001345   -1.886305720    0.000000000
   6  H       1.00   -3.605540754    1.027670861   -1.675298901
   7  H       1.00   -3.605540754    1.027670861    1.675298901
   8  C       6.00    1.026177977   -1.256025366   -2.392015328
   9  C       6.00    1.026177977   -1.256025366    2.392015328
  10  H       1.00    0.337051552   -0.278772398   -4.080731285
  11  H       1.00    0.337051552   -0.278772398    4.080731285
  12  H       1.00    0.448847749   -3.242770030   -2.499729718
  13  H       1.00    0.448847749   -3.242770030    2.499729718
  14  H       1.00    3.100738214   -1.205021658   -2.419454152
  15  H       1.00    3.100738214   -1.205021658    2.419454152

 Bond lengths in Bohr (Angstrom)

 1-2  2.892097881  1-5  2.069933136  1-6  2.069096224  1-7  2.069096224  2-3  2.719106031
     ( 1.530432290)     ( 1.095361444)     ( 1.094918569)     ( 1.094918569)     ( 1.438888946)

  2- 8  2.903104402   2- 9  2.903104402   3- 4  1.834522965   8-10  2.069222119   8-12  2.071730422
       ( 1.536256691)       ( 1.536256691)       ( 0.970787746)       ( 1.094985190)       ( 1.096312526)

  8-14  2.075368508   9-11  2.069222119   9-13  2.071730422   9-15  2.075368508
       ( 1.098237719)       ( 1.094985190)       ( 1.096312526)       ( 1.098237719)

 Bond angles

  1-2-3  104.76902697   1-2-8  110.92255387   1-2-9  110.92255387   2-1-5  110.97328220

  2- 1- 6  110.22090701   2- 1- 7  110.22090701   2- 3- 4  107.25071562   2- 8-10  110.21836376

  2- 8-12  111.57747468   2- 8-14  110.77023896   2- 9-11  110.21836376   2- 9-13  111.57747468

  2- 9-15  110.77023896   3- 2- 8  109.53648747   3- 2- 9  109.53648747   5- 1- 6  108.61190457

  5- 1- 7  108.61190457   6- 1- 7  108.12870271   8- 2- 9  110.96453384  10- 8-12  108.52192632

 10- 8-14  108.08997829  11- 9-13  108.52192632  11- 9-15  108.08997829  12- 8-14  107.54424578

 13- 9-15  107.54424578

 NUCLEAR CHARGE:                   42
 NUMBER OF PRIMITIVE AOS:         195
 NUMBER OF SYMMETRY AOS:          190
 NUMBER OF CONTRACTIONS:          120   ( 120A   )
 NUMBER OF CORE ORBITALS:           5   (   5A   )
 NUMBER OF VALENCE ORBITALS:       30   (  30A   )


 NUCLEAR REPULSION ENERGY  198.77359127


 Eigenvalues of metric

         1 0.176E-02 0.546E-02 0.548E-02 0.123E-01 0.248E-01 0.256E-01 0.256E-01 0.275E-01


 Contracted 2-electron integrals neglected if value below      1.0D-11
 AO integral compression algorithm  1   Integral accuracy      1.0D-11

     101.974 MB (compressed) written to integral file ( 44.9%)


 NUMBER OF SORTED TWO-ELECTRON INTEGRALS:   26357430.     BUFFER LENGTH:  32768
 NUMBER OF SEGMENTS:   2  SEGMENT LENGTH:   15997996      RECORD LENGTH: 524288

 Memory used in sort:      16.56 MW

 SORT1 READ    28411733. AND WROTE    24096425. INTEGRALS IN     70 RECORDS. CPU TIME:     0.41 SEC, REAL TIME:     1.36 SEC
 SORT2 READ    24096425. AND WROTE    26357430. INTEGRALS IN    389 RECORDS. CPU TIME:     0.64 SEC, REAL TIME:    11.05 SEC

 FILE SIZES:   FILE 1:   132.7 MBYTE,  FILE 4:   293.6 MBYTE,   TOTAL:    426.4 MBYTE

 OPERATOR DM      FOR CENTER  0  COORDINATES:    0.000000    0.000000    0.000000


 **********************************************************************************************************************************
 DATASETS  * FILE   NREC   LENGTH (MB)   RECORD NAMES
              1      19      120.44       500      610      700      900      950      970     1000      129      960     1100   
                                          VAR    BASINP    GEOM    SYMINP    ZMAT    AOBASIS   BASIS     P2S    ABASIS      S 
                                         1400     1410     1200     1210     1080     1600     1650     1300     1700   
                                           T        V       H0       H01     AOSYM     SMH    MOLCAS    ERIS     OPER   

 PROGRAMS   *        TOTAL       INT
 CPU TIMES  *         4.37      4.22
 REAL TIME  *        29.74 SEC
 DISK USED  *       426.89 MB      
 **********************************************************************************************************************************

 Density functional group SOGGA11-X=XC-SOGGA11-X
 Functional: XC-SOGGA11-X(via MFM 1.6)                                         Gradient terms: 1
 Use grid at  1800.2


 Exact exchange will be calculated, factor:  0.4015

 Functional: XC-SOGGA11-X              Factor:  1.0000

 Generated new metagrid on record  1800.2 with target accuracy 1.0D-06 and 53396 points in CPU time    1.6
 Computed new grid on record 1800.1 in CPU time    1.8
   99539 words reserved for DFT integration

 PROGRAM * UKS-SCF (Unrestricted Kohn-Sham)     Authors: W. Meyer, H.-J. Werner, P.J. Knowles, 1993

 NUMBER OF ELECTRONS:      21+   21-    SPACE SYMMETRY=1    SPIN SYMMETRY: Singlet 
 CONVERGENCE THRESHOLDS:    1.00E-05 (Density)    1.00E-06 (Energy)
 MAX. NUMBER OF ITERATIONS:       60
 INTERPOLATION TYPE:            DIIS
 INTERPOLATION STEPS:              2 (START)      1 (STEP)
 LEVEL SHIFTS:                 -0.20 (ALPHA)  -0.20 (BETA) 



 Use fine grid record 1800.2 for energy threshold  1.0D-06
 Orbital guess generated from atomic densities. Full valence occupancy:   21

 Molecular orbital dump at record        2200.2

 Initial alpha occupation  21
 Initial beta  occupation  21

 ITERATION    DDIFF          GRAD             ENERGY        2-EL.EN.            DIPOLE MOMENTS         DIIS
    1      0.000D+00      0.000D+00      -233.32690676    604.726813    0.69766   -0.83489    0.00000    0
    2      0.748D-02      0.393D-02      -233.43422300    592.893170    0.35187   -0.49927    0.00000    1
    3      0.211D-02      0.143D-02      -233.44499323    595.193472    0.39697   -0.54760    0.00000    2
    4      0.761D-03      0.294D-03      -233.44594919    595.029798    0.38241   -0.50490    0.00000    3
    5      0.552D-03      0.136D-03      -233.44623239    594.963428    0.37574   -0.50068    0.00000    4
    6      0.222D-03      0.303D-04      -233.44625247    594.954101    0.37401   -0.49810    0.00000    5
    7      0.371D-04      0.621D-05      -233.44625309    594.943891    0.37347   -0.49817    0.00000    6
    8      0.931D-05      0.272D-05      -233.44625318    594.947633    0.37346   -0.49831    0.00000    7
    9      0.349D-05      0.605D-06      -233.44625318    594.947552    0.37341   -0.49825    0.00000    6

 Final alpha occupancy:  21
 Final beta  occupancy:  21

 !UKS STATE 1.1 Energy               -233.446253184773
 Nuclear energy                       198.77359127
 One-electron energy                 -708.78924700
 Two-electron energy                  297.47377591
 Density functional                   -20.90437337     XC-SOGGA11-X=-20.90437337
 Virial quotient                       -1.01146188
 !UKS STATE 1.1 Dipole moment           0.37340925    -0.49824612     0.00000000
 Dipole moment /Debye                   0.94904947    -1.26633236     0.00000000

 Orbital energies for positive spin:

         1.1          2.1          3.1          4.1          5.1          6.1          7.1          8.1          9.1         10.1
    -19.495840   -10.506686   -10.446098   -10.446086   -10.440220    -1.103196    -0.864537    -0.761728    -0.760336    -0.625970

        11.1         12.1         13.1         14.1         15.1         16.1         17.1         18.1         19.1         20.1
     -0.542977    -0.503958    -0.501736    -0.461002    -0.445868    -0.425469    -0.412620    -0.400846    -0.394355    -0.363120

        21.1         22.1         23.1
     -0.317196     0.069098     0.120537

 Orbital energies for negative spin:

         1.1          2.1          3.1          4.1          5.1          6.1          7.1          8.1          9.1         10.1
    -19.495840   -10.506686   -10.446098   -10.446086   -10.440220    -1.103196    -0.864537    -0.761728    -0.760336    -0.625970

        11.1         12.1         13.1         14.1         15.1         16.1         17.1         18.1         19.1         20.1
     -0.542977    -0.503958    -0.501736    -0.461002    -0.445868    -0.425469    -0.412620    -0.400846    -0.394355    -0.363120

        21.1         22.1         23.1
     -0.317196     0.069098     0.120537

 HOMO     21.1    -0.317196 =      -8.6313eV
 LUMO     22.1     0.069098 =       1.8803eV
 LUMO-HOMO         0.386294 =      10.5116eV

 EXPECTATION VALUE OF S**2:            -0.00000000

 Natural orbitals saved to record    2200.2 (Orbital set 3)

 Orbital spaces for UNO-CAS (Min. occupation: 0.020  Max. occupation: 1.980):

 Closed:       21
 Active:        0


 **********************************************************************************************************************************
 DATASETS  * FILE   NREC   LENGTH (MB)   RECORD NAMES
              1      20      122.15       500      610      700      900      950      970     1000      129      960     1100   
                                          VAR    BASINP    GEOM    SYMINP    ZMAT    AOBASIS   BASIS     P2S    ABASIS      S 
                                         1400     1410     1200     1210     1080     1600     1650     1300     1700     1800   
                                           T        V       H0       H01     AOSYM     SMH    MOLCAS    ERIS     OPER     GRID   

              2       5        3.59       700     1000      520     1800     2200   
                                         GEOM     BASIS   MCVARS    GRID      UKS  

 PROGRAMS   *        TOTAL       UKS       INT
 CPU TIMES  *        29.14     24.77      4.22
 REAL TIME  *        98.65 SEC
 DISK USED  *       426.89 MB      
 **********************************************************************************************************************************


 PROGRAM * Intrinsic Basis Bonding Analysis (IBBA)          Author: G. Knizia

 Molecular orbitals read from record     2200.2  Type=UKS/ALPHA (state 1.1)
 Fock matrix read from record            2200.2  Type=UKS/TOTAL (state 1.1)
 Orbital energies read from record       2200.2  Type=UKS/ALPHA (state 1.1)
 Density matrix read from record         2200.2  Type=UKS/CHARGE (state 1.1)

 Number of core orbitals:           5 (   5 )
 Number of closed-shell orbitals:  16 (  16 )

 Basis set MINAO-AUTO-PP generated.      Number of basis functions:   35 

 Polarized AO type:                A = (O Ot + (1-O)(1-Ot)) P12
 Orthogonalization method:         Symmetric (Loewdin)
 Localization functional:          L = sum[A,i] <i|n_A|i>^4 -> max

 Localization group 1:  21 orbitals, occupancy  2.000
 Iterative localization: IB/PM,    7 iter; Final gradient 0.47E-08

 Bond order analysis:       [THRPRINT= 0.020]

   CEN ATOM   CEN ATOM     WIBERG.BO      RENORM.BO
     1   C  -   2   C       0.995625       0.993217
     1   C  -   5   H       0.967026       0.987876
     1   C  -   6   H       0.962371       0.983069
     1   C  -   7   H       0.962371       0.983069

     2   C  -   1   C       0.995625       0.993217
     2   C  -   9   C       0.994464       0.976567
     2   C  -   8   C       0.994464       0.976567
     2   C  -   3   O       0.937334       0.954848

     3   O  -   2   C       0.937334       0.954848
     3   O  -   4   H       0.873035       0.978995
     3   O  -   9   C       0.025623       0.013128
     3   O  -   8   C       0.025623       0.013128

     4   H  -   3   O       0.873035       0.978995

     5   H  -   1   C       0.967026       0.987876

     6   H  -   1   C       0.962371       0.983069

     7   H  -   1   C       0.962371       0.983069

     8   C  -   2   C       0.994464       0.976567
     8   C  -  14   H       0.966407       0.983590
     8   C  -  12   H       0.963416       0.983629
     8   C  -  10   H       0.962838       0.982907
     8   C  -   3   O       0.025623       0.013128

     9   C  -   2   C       0.994464       0.976567
     9   C  -  15   H       0.966407       0.983590
     9   C  -  13   H       0.963416       0.983629
     9   C  -  11   H       0.962838       0.982907
     9   C  -   3   O       0.025623       0.013128

    10   H  -   8   C       0.962838       0.982907

    11   H  -   9   C       0.962838       0.982907

    12   H  -   8   C       0.963416       0.983629

    13   H  -   9   C       0.963416       0.983629

    14   H  -   8   C       0.966407       0.983590

    15   H  -   9   C       0.966407       0.983590


 Valency analysis:

   CEN ATOM   TOT.VALENCE
     1   C       3.943684
     2   C       3.932156
     3   O       1.922943
     4   H       0.890720
     5   H       0.984690
     6   H       0.982058
     7   H       0.982058
     8   C       3.946029
     9   C       3.946029
    10   H       0.982102
    11   H       0.982102
    12   H       0.983742
    13   H       0.983742
    14   H       0.986000
    15   H       0.986000

 Total charge composition:

   CEN ATOM         s          p       ELECTRONS ->P.CHARGE
     1   C       3.02742    3.35891      6.38633   -0.38633
     2   C       2.92727    2.81253      5.73980    0.26020
     3   O       3.63539    4.92062      8.55601   -0.55601
     4   H       0.66942                 0.66942    0.33058
     5   H       0.87627                 0.87627    0.12373
     6   H       0.86605                 0.86605    0.13395
     7   H       0.86605                 0.86605    0.13395
     8   C       3.03312    3.36652      6.39965   -0.39965
     9   C       3.03312    3.36652      6.39965   -0.39965
    10   H       0.86622                 0.86622    0.13378
    11   H       0.86622                 0.86622    0.13378
    12   H       0.87249                 0.87249    0.12751
    13   H       0.87249                 0.87249    0.12751
    14   H       0.88168                 0.88168    0.11832
    15   H       0.88168                 0.88168    0.11832

 Total charge composition, AO contributions:

   CEN ATOM SHL      SPHERICAL COMPONENTS
     1   C  1s       1.99041
     1   C  2s       1.03701
     1   C  2p       1.04237    1.15222    1.16432

     2   C  1s       1.99213
     2   C  2s       0.93514
     2   C  2p       1.00968    0.79285    1.01000

     3   O  1s       1.99694
     3   O  2s       1.63845
     3   O  2p       1.46860    1.49227    1.95975

     4   H  1s       0.66942

     5   H  1s       0.87627

     6   H  1s       0.86605

     7   H  1s       0.86605

     8   C  1s       1.99051
     8   C  2s       1.04261
     8   C  2p       1.13550    1.13708    1.09394

     9   C  1s       1.99051
     9   C  2s       1.04261
     9   C  2p       1.13550    1.13708    1.09394

    10   H  1s       0.86622

    11   H  1s       0.86622

    12   H  1s       0.87249

    13   H  1s       0.87249

    14   H  1s       0.88168

    15   H  1s       0.88168

 Summary of localized orbital composition:   [THRPRINT= 0.020]

   ORB  GRP  ORB.ENERGY      CENTERS/CHARGES
     1   1   -19.333083      O  3   2.000
     2   1   -10.412136      C  2   2.000
     3   1   -10.327959      C  8   2.000
     4   1   -10.327959      C  9   2.000
     5   1   -10.321238      C  1   2.000
     6   1    -0.826034      O  3   1.332   H  4   0.659
     7   1    -0.788939      O  3   1.278   C  2   0.705
     8   1    -0.635028      C  8   1.010   C  2   0.976
     9   1    -0.635028      C  9   1.010   C  2   0.976
    10   1    -0.633899      C  1   0.992   C  2   0.986   (other: 0.022)
    11   1    -0.629991      O  3   1.983
    12   1    -0.559516      C  9   1.123   H 13   0.864
    13   1    -0.559516      C  8   1.123   H 12   0.864
    14   1    -0.558118      C  9   1.114   H 15   0.875
    15   1    -0.558118      C  8   1.114   H 14   0.875
    16   1    -0.554707      C  1   1.118   H  5   0.870
    17   1    -0.553598      C  8   1.131   H 10   0.859
    18   1    -0.553598      C  9   1.131   H 11   0.859
    19   1    -0.548185      C  1   1.131   H  7   0.859
    20   1    -0.548185      C  1   1.131   H  6   0.859
    21   1    -0.354928      O  3   1.960   (other: 0.040)

 Localized orbitals saved to record      2200.2  (orbital set 4)


 **********************************************************************************************************************************
 DATASETS  * FILE   NREC   LENGTH (MB)   RECORD NAMES
              1      20      122.15       500      610      700      900      950      970     1000      129      960     1100   
                                          VAR    BASINP    GEOM    SYMINP    ZMAT    AOBASIS   BASIS     P2S    ABASIS      S 
                                         1400     1410     1200     1210     1080     1600     1650     1300     1700     1800   
                                           T        V       H0       H01     AOSYM     SMH    MOLCAS    ERIS     OPER     GRID   

              2       5        3.71       700     1000      520     1800     2200   
                                         GEOM     BASIS   MCVARS    GRID      UKS  

 PROGRAMS   *        TOTAL      IBBA       UKS       INT
 CPU TIMES  *        29.18      0.04     24.77      4.22
 REAL TIME  *        98.82 SEC
 DISK USED  *       426.89 MB      
 **********************************************************************************************************************************
 Molecular orbitals read from record     2200.2  Type=UKS/LOCAL(IBO)  
 Occupation numbers read from record     2200.2  Type=UKS/LOCAL(IBO)  
 Orbital energies read from record       2200.2  Type=UKS/LOCAL(IBO)  
 Redundancy group numbers read from rec  2200.2  Type=UKS/BETA (state 1.1)

 IBBA/SVP energy=      0.000000000000

        UKS-SCF 
   -233.44625318
 **********************************************************************************************************************************
 Molpro calculation terminated
