
 Primary working directories    : /local
 Secondary working directories  : /local
 Wavefunction directory         : /local/
 Main file repository           : /local/

 SHA1      : b4a5b34a9e711420743f49e6833241d17c61fb3c
 NAME      : 2099.9.b4a5b34
 ARCHNAME  : linux/x86_64_openmp
 FC        : /cm/shared/languages/GCC-6.1/bin/gfortran
 BLASLIB   : -lblas
 id        : simonbennie

 Nodes     nprocs
 node35-012    1

 Using customized tuning parameters: mindgm=1; mindgv=20; mindgc=4; mindgr=1; noblas=0; minvec=7
 default implementation of scratch files=df  

 memory,500,m
 geomtyp=xyz
 nosym
 noorient
 geometry={
 C         -1.53233        0.02247        0.00000
 C         -0.00192        0.01421        0.00000
 O          0.37239        1.40356        0.00000
 H          1.34248        1.44036        0.00000
 H         -1.92991       -0.99819        0.00000
 H         -1.90797        0.54382       -0.88653
 H         -1.90797        0.54382        0.88653
 C          0.54303       -0.66466       -1.26580
 C          0.54303       -0.66466        1.26580
 H          0.17836       -0.14752       -2.15943
 H          0.17836       -0.14752        2.15943
 H          0.23752       -1.71600       -1.32280
 H          0.23752       -1.71600        1.32280
 H          1.64084       -0.63767       -1.28032
 H          1.64084       -0.63767        1.28032
 }
 basis={ default,tzvp }
 {uks,PBE0MOL,direct;wf,42,1,0}
 {ibba,bonds=1}

 Variables initialized (895), CPU time= 0.00 sec
 Commands  initialized (725), CPU time= 0.02 sec, 591 directives.
 Default parameters read. Elapsed time= 0.15 sec

 Checking input...
 Passed
1


                                         ***  PROGRAM SYSTEM MOLPRO  ***
                                       Copyright, TTI GmbH Stuttgart, 2015
                                    Version 2099.9 linked May 26 2017 16:03:21


 **********************************************************************************************************************************
 LABEL *                                                                                 
  64 bit serial version                                                                  DATE: 12-Jun-17          TIME: 19:36:28  
 **********************************************************************************************************************************

 SHA1:             b4a5b34a9e711420743f49e6833241d17c61fb3c
 **********************************************************************************************************************************
 SETTING GEOMTYP        =    XYZ

 Variable memory set to  500000000 words,  buffer space 

 ZSYMEL=NOSYM

 SETTING BASIS          =    TZVP


 Recomputing integrals since basis changed


 Using spherical harmonics

 Library entry C      S def2-TZVP            selected for orbital group  1
 Library entry C      P def2-TZVP            selected for orbital group  1
 Library entry C      D def2-TZVP            selected for orbital group  1
 Library entry C      F def2-TZVP            selected for orbital group  1
 Library entry O      S def2-TZVP            selected for orbital group  2
 Library entry O      P def2-TZVP            selected for orbital group  2
 Library entry O      D def2-TZVP            selected for orbital group  2
 Library entry O      F def2-TZVP            selected for orbital group  2
 Library entry H      S def2-TZVP            selected for orbital group  3
 Library entry H      P def2-TZVP            selected for orbital group  3


 PROGRAM * SEWARD (Integral evaluation for generally contracted gaussian basis sets)     Author: Roland Lindh, 1990

 Geometry written to block  1 of record 700


 Point group  C1  



 ATOMIC COORDINATES

 NR  ATOM    CHARGE       X              Y              Z

   1  C       6.00   -2.895684032    0.042462146    0.000000000
   2  C       6.00   -0.003628274    0.026853008    0.000000000
   3  O       8.00    0.703715112    2.652343999    0.000000000
   4  H       1.00    2.536919528    2.721885921    0.000000000
   5  H       1.00   -3.647001345   -1.886305720    0.000000000
   6  H       1.00   -3.605540754    1.027670861   -1.675298901
   7  H       1.00   -3.605540754    1.027670861    1.675298901
   8  C       6.00    1.026177977   -1.256025366   -2.392015328
   9  C       6.00    1.026177977   -1.256025366    2.392015328
  10  H       1.00    0.337051552   -0.278772398   -4.080731285
  11  H       1.00    0.337051552   -0.278772398    4.080731285
  12  H       1.00    0.448847749   -3.242770030   -2.499729718
  13  H       1.00    0.448847749   -3.242770030    2.499729718
  14  H       1.00    3.100738214   -1.205021658   -2.419454152
  15  H       1.00    3.100738214   -1.205021658    2.419454152

 Bond lengths in Bohr (Angstrom)

 1-2  2.892097881  1-5  2.069933136  1-6  2.069096224  1-7  2.069096224  2-3  2.719106031
     ( 1.530432290)     ( 1.095361444)     ( 1.094918569)     ( 1.094918569)     ( 1.438888946)

  2- 8  2.903104402   2- 9  2.903104402   3- 4  1.834522965   8-10  2.069222119   8-12  2.071730422
       ( 1.536256691)       ( 1.536256691)       ( 0.970787746)       ( 1.094985190)       ( 1.096312526)

  8-14  2.075368508   9-11  2.069222119   9-13  2.071730422   9-15  2.075368508
       ( 1.098237719)       ( 1.094985190)       ( 1.096312526)       ( 1.098237719)

 Bond angles

  1-2-3  104.76902697   1-2-8  110.92255387   1-2-9  110.92255387   2-1-5  110.97328220

  2- 1- 6  110.22090701   2- 1- 7  110.22090701   2- 3- 4  107.25071562   2- 8-10  110.21836376

  2- 8-12  111.57747468   2- 8-14  110.77023896   2- 9-11  110.21836376   2- 9-13  111.57747468

  2- 9-15  110.77023896   3- 2- 8  109.53648747   3- 2- 9  109.53648747   5- 1- 6  108.61190457

  5- 1- 7  108.61190457   6- 1- 7  108.12870271   8- 2- 9  110.96453384  10- 8-12  108.52192632

 10- 8-14  108.08997829  11- 9-13  108.52192632  11- 9-15  108.08997829  12- 8-14  107.54424578

 13- 9-15  107.54424578

 NUCLEAR CHARGE:                   42
 NUMBER OF PRIMITIVE AOS:         335
 NUMBER OF SYMMETRY AOS:          310
 NUMBER OF CONTRACTIONS:          215   ( 215A   )
 NUMBER OF CORE ORBITALS:           5   (   5A   )
 NUMBER OF VALENCE ORBITALS:       30   (  30A   )


 NUCLEAR REPULSION ENERGY  198.77359127


 Eigenvalues of metric

         1 0.262E-03 0.510E-03 0.539E-03 0.594E-03 0.697E-03 0.755E-03 0.210E-02 0.239E-02


 Contracted 2-electron integrals neglected if value below      1.0D-11
 AO integral compression algorithm  1   Integral accuracy      1.0D-11

     977.797 MB (compressed) written to integral file ( 41.7%)


 NUMBER OF SORTED TWO-ELECTRON INTEGRALS:  269595810.     BUFFER LENGTH:  32768
 NUMBER OF SEGMENTS:  17  SEGMENT LENGTH:   15999762      RECORD LENGTH: 524288

 Memory used in sort:      16.56 MW

 SORT1 READ   292827432. AND WROTE   238500613. INTEGRALS IN    690 RECORDS. CPU TIME:     4.04 SEC, REAL TIME:     8.26 SEC
 SORT2 READ   238500613. AND WROTE   269595810. INTEGRALS IN   3730 RECORDS. CPU TIME:     7.25 SEC, REAL TIME:    35.57 SEC

 FILE SIZES:   FILE 1:  1009.7 MBYTE,  FILE 4:  2894.1 MBYTE,   TOTAL:   3903.8 MBYTE

 OPERATOR DM      FOR CENTER  0  COORDINATES:    0.000000    0.000000    0.000000


 **********************************************************************************************************************************
 DATASETS  * FILE   NREC   LENGTH (MB)   RECORD NAMES
              1      19      926.27       500      610      700      900      950      970     1000      129      960     1100   
                                          VAR    BASINP    GEOM    SYMINP    ZMAT    AOBASIS   BASIS     P2S    ABASIS      S 
                                         1400     1410     1200     1210     1080     1600     1650     1300     1700   
                                           T        V       H0       H01     AOSYM     SMH    MOLCAS    ERIS     OPER   

 PROGRAMS   *        TOTAL       INT
 CPU TIMES  *        29.78     29.64
 REAL TIME  *        67.08 SEC
 DISK USED  *         3.90 GB      
 **********************************************************************************************************************************

 Density functional group PBE0MOL=PBEX+PW91C
 Functional: PBEX(Automatically generated (new) PBEX)                          Gradient terms: 1
 Functional: PW91C(Automatically generated (new) PW91C)                        Gradient terms: 1
 Use grid at  1800.2


 Exact exchange will be calculated, factor:  0.2500

 Functional: PBEX                      Factor:  0.7500
 Functional: PW91C                     Factor:  1.0000

 Generated new metagrid on record  1800.2 with target accuracy 1.0D-06 and 54596 points in CPU time    1.7
 Computed new grid on record 1800.1 in CPU time    1.9
  175219 words reserved for DFT integration

 PROGRAM * UKS-SCF (Unrestricted Kohn-Sham)     Authors: W. Meyer, H.-J. Werner, P.J. Knowles, 1993

 NUMBER OF ELECTRONS:      21+   21-    SPACE SYMMETRY=1    SPIN SYMMETRY: Singlet 
 CONVERGENCE THRESHOLDS:    1.00E-05 (Density)    1.00E-06 (Energy)
 MAX. NUMBER OF ITERATIONS:       60
 INTERPOLATION TYPE:            DIIS
 INTERPOLATION STEPS:              2 (START)      1 (STEP)
 LEVEL SHIFTS:                 -0.20 (ALPHA)  -0.20 (BETA) 



 Use fine grid record 1800.2 for energy threshold  1.0D-06
 Orbital guess generated from atomic densities. Full valence occupancy:   21

 Molecular orbital dump at record        2200.2

 Initial alpha occupation  21
 Initial beta  occupation  21

 ITERATION    DDIFF          GRAD             ENERGY        2-EL.EN.            DIPOLE MOMENTS         DIIS
    1      0.000D+00      0.000D+00      -233.39117845    619.391720    0.69886   -0.81680    0.00000    0
    2      0.402D-02      0.284D-02      -233.54805607    601.820079    0.27809   -0.47210    0.00000    1
    3      0.119D-02      0.133D-02      -233.57380779    606.089959    0.37475   -0.55817    0.00000    2
    4      0.376D-03      0.201D-03      -233.57473387    605.961328    0.36322   -0.51391    0.00000    3
    5      0.345D-03      0.924D-04      -233.57506252    605.888923    0.35851   -0.51258    0.00000    4
    6      0.238D-03      0.262D-04      -233.57510978    605.867617    0.35609   -0.50631    0.00000    5
    7      0.558D-04      0.639D-05      -233.57511194    605.845205    0.35493   -0.50563    0.00000    6
    8      0.137D-04      0.358D-05      -233.57511231    605.852608    0.35494   -0.50584    0.00000    7
    9      0.520D-05      0.552D-06      -233.57511233    605.852657    0.35489   -0.50573    0.00000    6
   10      0.952D-06      0.202D-06      -233.57511233    605.852148    0.35484   -0.50578    0.00000    7

 Final alpha occupancy:  21
 Final beta  occupancy:  21

 !UKS STATE 1.1 Energy               -233.575112331500
 Nuclear energy                       198.77359127
 One-electron energy                 -709.53455287
 Two-electron energy                  302.92607406
 Density functional                   -25.74022479     PBEX=-32.37637978 PW91C= -1.45793996
 Virial quotient                       -1.00567026
 !UKS STATE 1.1 Dipole moment           0.35484288    -0.50578434     0.00000000
 Dipole moment /Debye                   0.90186158    -1.28549136     0.00000000

 Orbital energies for positive spin:

         1.1          2.1          3.1          4.1          5.1          6.1          7.1          8.1          9.1         10.1
    -19.202825   -10.286710   -10.216620   -10.216613   -10.211208    -1.043731    -0.810465    -0.712107    -0.710985    -0.585384

        11.1         12.1         13.1         14.1         15.1         16.1         17.1         18.1         19.1         20.1
     -0.504512    -0.466577    -0.463623    -0.425713    -0.410665    -0.391766    -0.378412    -0.367870    -0.360547    -0.332127

        21.1         22.1         23.1
     -0.285207     0.028775     0.076180

 Orbital energies for negative spin:

         1.1          2.1          3.1          4.1          5.1          6.1          7.1          8.1          9.1         10.1
    -19.202822   -10.286711   -10.216619   -10.216612   -10.211207    -1.043727    -0.810463    -0.712105    -0.710983    -0.585384

        11.1         12.1         13.1         14.1         15.1         16.1         17.1         18.1         19.1         20.1
     -0.504511    -0.466576    -0.463622    -0.425712    -0.410664    -0.391765    -0.378411    -0.367868    -0.360546    -0.332125

        21.1         22.1         23.1
     -0.285204     0.028774     0.076179

 HOMO    -21.1    -0.285204 =      -7.7608eV
 LUMO    -22.1     0.028774 =       0.7830eV
 LUMO-HOMO         0.313978 =       8.5438eV

 EXPECTATION VALUE OF S**2:             0.00000000

 Occupation number threshold for canonical orbitals:  1.999000 (occupied),  0.001000 (virtual)

 Number of pseudo-canonical orbitals per symmetry:   21
 Number of active natural orbitals per symmetry:      0

 Natural orbitals saved to record    2200.2 (Orbital set 3)

 Orbital spaces for UNO-CAS (Min. occupation: 0.020  Max. occupation: 1.980):

 Closed:       21
 Active:        0


 **********************************************************************************************************************************
 DATASETS  * FILE   NREC   LENGTH (MB)   RECORD NAMES
              1      20      928.02       500      610      700      900      950      970     1000      129      960     1100   
                                          VAR    BASINP    GEOM    SYMINP    ZMAT    AOBASIS   BASIS     P2S    ABASIS      S 
                                         1400     1410     1200     1210     1080     1600     1650     1300     1700     1800   
                                           T        V       H0       H01     AOSYM     SMH    MOLCAS    ERIS     OPER     GRID   

              2       5        4.89       700     1000      520     1800     2200   
                                         GEOM     BASIS   MCVARS    GRID      UKS  

 PROGRAMS   *        TOTAL       UKS       INT
 CPU TIMES  *       135.72    105.93     29.64
 REAL TIME  *       175.41 SEC
 DISK USED  *         3.90 GB      
 **********************************************************************************************************************************


 PROGRAM * Intrinsic Basis Bonding Analysis (IBBA)          Author: G. Knizia

 Molecular orbitals read from record     2200.2  Type=UKS/ALPHA (state 1.1)
 Fock matrix read from record            2200.2  Type=UKS/TOTAL (state 1.1)
 Orbital energies read from record       2200.2  Type=UKS/ALPHA (state 1.1)
 Density matrix read from record         2200.2  Type=UKS/CHARGE (state 1.1)

 Number of core orbitals:           5 (   5 )
 Number of closed-shell orbitals:  16 (  16 )

 Basis set MINAO-AUTO-PP generated.      Number of basis functions:   35 

 Polarized AO type:                A = (O Ot + (1-O)(1-Ot)) P12
 Orthogonalization method:         Symmetric (Loewdin)
 Localization functional:          L = sum[A,i] <i|n_A|i>^4 -> max

 Localization group 1:  21 orbitals, occupancy  2.000
 Iterative localization: IB/PM,    7 iter; Final gradient 0.28E-08

 Bond order analysis:       [THRPRINT= 0.020]

   CEN ATOM   CEN ATOM     WIBERG.BO      RENORM.BO
     1   C  -   2   C       0.996531       0.993271
     1   C  -   5   H       0.962323       0.987286
     1   C  -   6   H       0.957422       0.981770
     1   C  -   7   H       0.957422       0.981770

     2   C  -   1   C       0.996531       0.993271
     2   C  -   9   C       0.995237       0.975830
     2   C  -   8   C       0.995237       0.975830
     2   C  -   3   O       0.934322       0.949881

     3   O  -   2   C       0.934322       0.949881
     3   O  -   4   H       0.861132       0.976882
     3   O  -   8   C       0.027232       0.013926
     3   O  -   9   C       0.027232       0.013926

     4   H  -   3   O       0.861132       0.976882

     5   H  -   1   C       0.962323       0.987286

     6   H  -   1   C       0.957422       0.981770

     7   H  -   1   C       0.957422       0.981770

     8   C  -   2   C       0.995237       0.975830
     8   C  -  14   H       0.961847       0.982403
     8   C  -  12   H       0.958193       0.981893
     8   C  -  10   H       0.957949       0.981668
     8   C  -   3   O       0.027232       0.013926

     9   C  -   2   C       0.995237       0.975830
     9   C  -  15   H       0.961847       0.982403
     9   C  -  13   H       0.958193       0.981893
     9   C  -  11   H       0.957949       0.981668
     9   C  -   3   O       0.027232       0.013926

    10   H  -   8   C       0.957949       0.981668

    11   H  -   9   C       0.957949       0.981668

    12   H  -   8   C       0.958193       0.981893

    13   H  -   9   C       0.958193       0.981893

    14   H  -   8   C       0.961847       0.982403

    15   H  -   9   C       0.961847       0.982403


 Valency analysis:

   CEN ATOM   TOT.VALENCE
     1   C       3.933135
     2   C       3.931423
     3   O       1.915976
     4   H       0.880353
     5   H       0.980779
     6   H       0.978025
     7   H       0.978025
     8   C       3.935893
     9   C       3.935893
    10   H       0.978045
    11   H       0.978045
    12   H       0.979928
    13   H       0.979928
    14   H       0.982395
    15   H       0.982395

 Total charge composition:

   CEN ATOM         s          p       ELECTRONS ->P.CHARGE
     1   C       3.04509    3.38274      6.42783   -0.42783
     2   C       2.93961    2.80414      5.74375    0.25625
     3   O       3.64883    4.92436      8.57320   -0.57320
     4   H       0.65410                 0.65410    0.34590
     5   H       0.86136                 0.86136    0.13864
     6   H       0.85176                 0.85176    0.14824
     7   H       0.85176                 0.85176    0.14824
     8   C       3.05115    3.38950      6.44065   -0.44065
     9   C       3.05115    3.38950      6.44065   -0.44065
    10   H       0.85183                 0.85183    0.14817
    11   H       0.85183                 0.85183    0.14817
    12   H       0.85832                 0.85832    0.14168
    13   H       0.85832                 0.85832    0.14168
    14   H       0.86732                 0.86732    0.13268
    15   H       0.86732                 0.86732    0.13268

 Total charge composition, AO contributions:

   CEN ATOM SHL      SPHERICAL COMPONENTS
     1   C  1s       1.99107
     1   C  2s       1.05403
     1   C  2p       1.04056    1.16491    1.17727

     2   C  1s       1.99271
     2   C  2s       0.94690
     2   C  2p       1.00702    0.78786    1.00926

     3   O  1s       1.99712
     3   O  2s       1.65171
     3   O  2p       1.47598    1.49131    1.95707

     4   H  1s       0.65410

     5   H  1s       0.86136

     6   H  1s       0.85176

     7   H  1s       0.85176

     8   C  1s       1.99117
     8   C  2s       1.05999
     8   C  2p       1.14654    1.14652    1.09644

     9   C  1s       1.99117
     9   C  2s       1.05999
     9   C  2p       1.14654    1.14652    1.09644

    10   H  1s       0.85183

    11   H  1s       0.85183

    12   H  1s       0.85832

    13   H  1s       0.85832

    14   H  1s       0.86732

    15   H  1s       0.86732

 Summary of localized orbital composition:   [THRPRINT= 0.020]

   ORB  GRP  ORB.ENERGY      CENTERS/CHARGES
     1   1   -19.040765      O  3   2.000
     2   1   -10.194151      C  2   2.000
     3   1   -10.100450      C  9   2.000
     4   1   -10.100450      C  8   2.000
     5   1   -10.094232      C  1   2.000
     6   1    -0.780742      O  3   1.348   H  4   0.643
     7   1    -0.736783      O  3   1.283   C  2   0.699
     8   1    -0.598086      O  3   1.982
     9   1    -0.591056      C  8   1.008   C  2   0.977
    10   1    -0.591056      C  9   1.008   C  2   0.977
    11   1    -0.590364      C  1   0.991   C  2   0.986   (other: 0.023)
    12   1    -0.520777      C  8   1.137   H 12   0.849
    13   1    -0.520777      C  9   1.137   H 13   0.849
    14   1    -0.519102      C  8   1.128   H 14   0.860
    15   1    -0.519102      C  9   1.128   H 15   0.860
    16   1    -0.516394      C  1   1.132   H  5   0.854
    17   1    -0.514850      C  9   1.146   H 11   0.844
    18   1    -0.514850      C  8   1.146   H 10   0.844
    19   1    -0.510107      C  1   1.145   H  6   0.844
    20   1    -0.510107      C  1   1.145   H  7   0.844
    21   1    -0.319584      O  3   1.957   (other: 0.043)

 Localized orbitals saved to record      2200.2  (orbital set 4)


 **********************************************************************************************************************************
 DATASETS  * FILE   NREC   LENGTH (MB)   RECORD NAMES
              1      20      928.02       500      610      700      900      950      970     1000      129      960     1100   
                                          VAR    BASINP    GEOM    SYMINP    ZMAT    AOBASIS   BASIS     P2S    ABASIS      S 
                                         1400     1410     1200     1210     1080     1600     1650     1300     1700     1800   
                                           T        V       H0       H01     AOSYM     SMH    MOLCAS    ERIS     OPER     GRID   

              2       5        5.27       700     1000      520     1800     2200   
                                         GEOM     BASIS   MCVARS    GRID      UKS  

 PROGRAMS   *        TOTAL      IBBA       UKS       INT
 CPU TIMES  *       135.78      0.07    105.93     29.64
 REAL TIME  *       175.59 SEC
 DISK USED  *         3.90 GB      
 **********************************************************************************************************************************
 Molecular orbitals read from record     2200.2  Type=UKS/LOCAL(IBO)  
 Occupation numbers read from record     2200.2  Type=UKS/LOCAL(IBO)  
 Orbital energies read from record       2200.2  Type=UKS/LOCAL(IBO)  
 Redundancy group numbers read from rec  2200.2  Type=UKS/BETA (state 1.1)

 IBBA/TZVP energy=      0.000000000000

        UKS-SCF 
   -233.57511233
 **********************************************************************************************************************************
 Molpro calculation terminated
