
 Primary working directories    : /local
 Secondary working directories  : /local
 Wavefunction directory         : /local/
 Main file repository           : /local/

 SHA1      : b4a5b34a9e711420743f49e6833241d17c61fb3c
 NAME      : 2099.9.b4a5b34
 ARCHNAME  : linux/x86_64_openmp
 FC        : /cm/shared/languages/GCC-6.1/bin/gfortran
 BLASLIB   : -lblas
 id        : simonbennie

 Nodes     nprocs
 node36-003    1

 Using customized tuning parameters: mindgm=1; mindgv=20; mindgc=4; mindgr=1; noblas=0; minvec=7
 default implementation of scratch files=df  

 memory,500,m
 geomtyp=xyz
 nosym
 noorient
 geometry={
 C         -1.53233        0.02247        0.00000
 C         -0.00192        0.01421        0.00000
 O          0.37239        1.40356        0.00000
 H          1.34248        1.44036        0.00000
 H         -1.92991       -0.99819        0.00000
 H         -1.90797        0.54382       -0.88653
 H         -1.90797        0.54382        0.88653
 C          0.54303       -0.66466       -1.26580
 C          0.54303       -0.66466        1.26580
 H          0.17836       -0.14752       -2.15943
 H          0.17836       -0.14752        2.15943
 H          0.23752       -1.71600       -1.32280
 H          0.23752       -1.71600        1.32280
 H          1.64084       -0.63767       -1.28032
 H          1.64084       -0.63767        1.28032
 }
 basis={ default,avtz }
 {ks,B-VWN,direct;wf,42,1,0}
 {ibba,bonds=1}

 Variables initialized (895), CPU time= 0.00 sec
 Commands  initialized (725), CPU time= 0.02 sec, 591 directives.
 Default parameters read. Elapsed time= 0.14 sec

 Checking input...
 Passed
1


                                         ***  PROGRAM SYSTEM MOLPRO  ***
                                       Copyright, TTI GmbH Stuttgart, 2015
                                    Version 2099.9 linked May 26 2017 16:03:21


 **********************************************************************************************************************************
 LABEL *                                                                                 
  64 bit serial version                                                                  DATE: 12-Jun-17          TIME: 15:55:17  
 **********************************************************************************************************************************

 SHA1:             b4a5b34a9e711420743f49e6833241d17c61fb3c
 **********************************************************************************************************************************
 SETTING GEOMTYP        =    XYZ

 Variable memory set to  500000000 words,  buffer space 

 ZSYMEL=NOSYM

 SETTING BASIS          =    AVTZ


 Recomputing integrals since basis changed


 Using spherical harmonics

 Library entry C      S aug-cc-pVTZ          selected for orbital group  1
 Library entry C      P aug-cc-pVTZ          selected for orbital group  1
 Library entry C      D aug-cc-pVTZ          selected for orbital group  1
 Library entry C      F aug-cc-pVTZ          selected for orbital group  1
 Library entry O      S aug-cc-pVTZ          selected for orbital group  2
 Library entry O      P aug-cc-pVTZ          selected for orbital group  2
 Library entry O      D aug-cc-pVTZ          selected for orbital group  2
 Library entry O      F aug-cc-pVTZ          selected for orbital group  2
 Library entry H      S aug-cc-pVTZ          selected for orbital group  3
 Library entry H      P aug-cc-pVTZ          selected for orbital group  3
 Library entry H      D aug-cc-pVTZ          selected for orbital group  3


 PROGRAM * SEWARD (Integral evaluation for generally contracted gaussian basis sets)     Author: Roland Lindh, 1990

 Geometry written to block  1 of record 700


 Point group  C1  



 ATOMIC COORDINATES

 NR  ATOM    CHARGE       X              Y              Z

   1  C       6.00   -2.895684032    0.042462146    0.000000000
   2  C       6.00   -0.003628274    0.026853008    0.000000000
   3  O       8.00    0.703715112    2.652343999    0.000000000
   4  H       1.00    2.536919528    2.721885921    0.000000000
   5  H       1.00   -3.647001345   -1.886305720    0.000000000
   6  H       1.00   -3.605540754    1.027670861   -1.675298901
   7  H       1.00   -3.605540754    1.027670861    1.675298901
   8  C       6.00    1.026177977   -1.256025366   -2.392015328
   9  C       6.00    1.026177977   -1.256025366    2.392015328
  10  H       1.00    0.337051552   -0.278772398   -4.080731285
  11  H       1.00    0.337051552   -0.278772398    4.080731285
  12  H       1.00    0.448847749   -3.242770030   -2.499729718
  13  H       1.00    0.448847749   -3.242770030    2.499729718
  14  H       1.00    3.100738214   -1.205021658   -2.419454152
  15  H       1.00    3.100738214   -1.205021658    2.419454152

 Bond lengths in Bohr (Angstrom)

 1-2  2.892097881  1-5  2.069933136  1-6  2.069096224  1-7  2.069096224  2-3  2.719106031
     ( 1.530432290)     ( 1.095361444)     ( 1.094918569)     ( 1.094918569)     ( 1.438888946)

  2- 8  2.903104402   2- 9  2.903104402   3- 4  1.834522965   8-10  2.069222119   8-12  2.071730422
       ( 1.536256691)       ( 1.536256691)       ( 0.970787746)       ( 1.094985190)       ( 1.096312526)

  8-14  2.075368508   9-11  2.069222119   9-13  2.071730422   9-15  2.075368508
       ( 1.098237719)       ( 1.094985190)       ( 1.096312526)       ( 1.098237719)

 Bond angles

  1-2-3  104.76902697   1-2-8  110.92255387   1-2-9  110.92255387   2-1-5  110.97328220

  2- 1- 6  110.22090701   2- 1- 7  110.22090701   2- 3- 4  107.25071562   2- 8-10  110.21836376

  2- 8-12  111.57747468   2- 8-14  110.77023896   2- 9-11  110.21836376   2- 9-13  111.57747468

  2- 9-15  110.77023896   3- 2- 8  109.53648747   3- 2- 9  109.53648747   5- 1- 6  108.61190457

  5- 1- 7  108.61190457   6- 1- 7  108.12870271   8- 2- 9  110.96453384  10- 8-12  108.52192632

 10- 8-14  108.08997829  11- 9-13  108.52192632  11- 9-15  108.08997829  12- 8-14  107.54424578

 13- 9-15  107.54424578

 NUCLEAR CHARGE:                   42
 NUMBER OF PRIMITIVE AOS:         605
 NUMBER OF SYMMETRY AOS:          540
 NUMBER OF CONTRACTIONS:          460   ( 460A   )
 NUMBER OF CORE ORBITALS:           5   (   5A   )
 NUMBER OF VALENCE ORBITALS:       30   (  30A   )


 NUCLEAR REPULSION ENERGY  198.77359127


 Eigenvalues of metric

         1 0.351E-05 0.596E-05 0.770E-05 0.977E-05 0.161E-04 0.173E-04 0.207E-04 0.297E-04


 Contracted 2-electron integrals neglected if value below      1.0D-12
 AO integral compression algorithm  1   Integral accuracy      1.0D-12

     24892.932 MB (compressed) written to integral file ( 51.7%)


 NUMBER OF SORTED TWO-ELECTRON INTEGRALS: 5621233465.     BUFFER LENGTH:  32768
 NUMBER OF SEGMENTS: 176  SEGMENT LENGTH:   31999951      RECORD LENGTH: 131072

 Memory used in sort:      32.16 MW

 SORT1 READ  6020115514. AND WROTE  5366777799. INTEGRALS IN  61513 RECORDS. CPU TIME:    88.76 SEC, REAL TIME:  4155.48 SEC
 SORT2 READ  5366777799. AND WROTE  5621233465. INTEGRALS IN  94959 RECORDS. CPU TIME:   138.04 SEC, REAL TIME:  4209.53 SEC

 FILE SIZES:   FILE 1: 24930.9 MBYTE,  FILE 4: 64501.1 MBYTE,   TOTAL:  89432.0 MBYTE

 OPERATOR DM      FOR CENTER  0  COORDINATES:    0.000000    0.000000    0.000000


 **********************************************************************************************************************************
 DATASETS  * FILE   NREC   LENGTH (MB)   RECORD NAMES
              1      19    23757.53       500      610      700      900      950      970     1000      129      960     1100   
                                          VAR    BASINP    GEOM    SYMINP    ZMAT    AOBASIS   BASIS     P2S    ABASIS      S 
                                         1400     1410     1200     1210     1080     1600     1650     1300     1700   
                                           T        V       H0       H01     AOSYM     SMH    MOLCAS    ERIS     OPER   

 PROGRAMS   *        TOTAL       INT
 CPU TIMES  *       452.49    452.35
 REAL TIME  *      9391.05 SEC
 DISK USED  *        89.43 GB      
 **********************************************************************************************************************************

 Density functional group B-VWN=B88+VWN5
 Functional: B88(Automatically generated (new) B88)                            Gradient terms: 1
 Functional: VWN5(Automatically generated (new) VWN5)                          Gradient terms: 0
 Use grid at  1800.2

 Functional: B88                       Factor:  1.0000
 Functional: VWN5                      Factor:  1.0000

 Generated new metagrid on record  1800.2 with target accuracy 1.0D-06 and 55396 points in CPU time    1.7
 Computed new grid on record 1800.1 in CPU time    1.9
  370324 words reserved for DFT integration

 PROGRAM * RKS-SCF (Restricted closed shell Kohn-Sham)     Authors: W. Meyer, H.-J. Werner, P.J. Knowles, 1993

 NUMBER OF ELECTRONS:      21+   21-    SPACE SYMMETRY=1    SPIN SYMMETRY: Singlet 
 CONVERGENCE THRESHOLDS:    1.00E-05 (Density)    1.00E-06 (Energy)
 MAX. NUMBER OF ITERATIONS:       60
 INTERPOLATION TYPE:            DIIS
 INTERPOLATION STEPS:              2 (START)      1 (STEP)
 LEVEL SHIFTS:                  0.00 (CLOSED)  0.00 (OPEN) 



 Use fine grid record 1800.2 for energy threshold  1.0D-06
 Orbital guess generated from atomic densities. Full valence occupancy:   35

 Molecular orbital dump at record        2100.2

 Initial occupancy:  21

 ITERATION    DDIFF          GRAD             ENERGY        2-EL.EN.            DIPOLE MOMENTS         DIIS   ORB.
    1      0.000D+00      0.000D+00      -234.59376059    641.862787    0.69751   -0.80150    0.00000    0    start
    2      0.000D+00      0.615D-02      -233.88861774    585.873111   -0.84238    0.25154    0.00000    1    diag
    3      0.162D-01      0.106D-01      -234.90663624    624.988369    0.42717   -0.81772    0.00000    2    diag
    4      0.104D-01      0.180D-02      -234.92756030    622.797290    0.32754   -0.41019    0.00000    3    diag
    5      0.171D-02      0.640D-03      -234.93026152    622.156522    0.30950   -0.54510    0.00000    4    diag
    6      0.553D-03      0.209D-03      -234.93058969    622.455669    0.31572   -0.51684    0.00000    5    diag
    7      0.189D-03      0.653D-04      -234.93061871    622.444136    0.31964   -0.51632    0.00000    6    diag
    8      0.575D-04      0.863D-05      -234.93061940    622.467658    0.31856   -0.52126    0.00000    7    diag
    9      0.103D-04      0.229D-05      -234.93061945    622.467842    0.31905   -0.51981    0.00000    8    diag
   10      0.233D-05      0.488D-06      -234.93061945    622.467177    0.31908   -0.52000    0.00000    0    orth

 Final occupancy:  21

 !RKS STATE 1.1 Energy               -234.930619452112
 Nuclear energy                       198.77359127
 One-electron energy                 -709.64765947
 Two-electron energy                  311.23358841
 Density functional                   -35.29013967     B88=-32.63379601 VWN5= -2.65634365
 Virial quotient                       -1.00884788
 !RKS STATE 1.1 Dipole moment           0.31907702    -0.51999946     0.00000000
 Dipole moment /Debye                   0.81095978    -1.32162022     0.00000000

 Orbital energies:

         1.1          2.1          3.1          4.1          5.1          6.1          7.1          8.1          9.1         10.1
    -18.805408   -10.004088    -9.938125    -9.938097    -9.933192    -0.942121    -0.726052    -0.637439    -0.636530    -0.526057

        11.1         12.1         13.1         14.1         15.1         16.1         17.1         18.1         19.1         20.1
     -0.452117    -0.416409    -0.413828    -0.380663    -0.367848    -0.352494    -0.340157    -0.327195    -0.321315    -0.293438

        21.1         22.1         23.1
     -0.240705    -0.033427    -0.007381

 HOMO     21.1    -0.240705 =      -6.5499eV
 LUMO     22.1    -0.033427 =      -0.9096eV
 LUMO-HOMO         0.207278 =       5.6403eV


 **********************************************************************************************************************************
 DATASETS  * FILE   NREC   LENGTH (MB)   RECORD NAMES
              1      20    23759.30       500      610      700      900      950      970     1000      129      960     1100   
                                          VAR    BASINP    GEOM    SYMINP    ZMAT    AOBASIS   BASIS     P2S    ABASIS      S 
                                         1400     1410     1200     1210     1080     1600     1650     1300     1700     1800   
                                           T        V       H0       H01     AOSYM     SMH    MOLCAS    ERIS     OPER     GRID   

              2       5        7.31       700     1000      520     1800     2100   
                                         GEOM     BASIS   MCVARS    GRID      RKS  

 PROGRAMS   *        TOTAL        KS       INT
 CPU TIMES  *       985.25    532.76    452.35
 REAL TIME  *     24448.47 SEC
 DISK USED  *        89.43 GB      
 **********************************************************************************************************************************


 PROGRAM * Intrinsic Basis Bonding Analysis (IBBA)          Author: G. Knizia

 Molecular orbitals read from record     2100.2  Type=RKS/CANONICAL (state 1.1)
 Fock matrix read from record            2100.2  Type=RKS/TOTAL (state 1.1)
 Orbital energies read from record       2100.2  Type=RKS/CANONICAL (state 1.1)
 Density matrix read from record         2100.2  Type=RKS/CHARGE (state 1.1)

 Number of core orbitals:           5 (   5 )
 Number of closed-shell orbitals:  16 (  16 )

 Basis set MINAO-AUTO-PP generated.      Number of basis functions:   35 

 Polarized AO type:                A = (O Ot + (1-O)(1-Ot)) P12
 Orthogonalization method:         Symmetric (Loewdin)
 Localization functional:          L = sum[A,i] <i|n_A|i>^4 -> max

 Localization group 1:  21 orbitals, occupancy  2.000
 Iterative localization: IB/PM,    7 iter; Final gradient 0.23E-08

 Bond order analysis:       [THRPRINT= 0.020]

   CEN ATOM   CEN ATOM     WIBERG.BO      RENORM.BO
     1   C  -   2   C       0.996254       0.994302
     1   C  -   5   H       0.964048       0.986711
     1   C  -   6   H       0.959536       0.980857
     1   C  -   7   H       0.959536       0.980857

     2   C  -   1   C       0.996254       0.994302
     2   C  -   9   C       0.994867       0.975404
     2   C  -   8   C       0.994867       0.975404
     2   C  -   3   O       0.933392       0.949161

     3   O  -   2   C       0.933392       0.949161
     3   O  -   4   H       0.863277       0.974954
     3   O  -   8   C       0.029065       0.014852
     3   O  -   9   C       0.029065       0.014852

     4   H  -   3   O       0.863277       0.974954

     5   H  -   1   C       0.964048       0.986711

     6   H  -   1   C       0.959536       0.980857

     7   H  -   1   C       0.959536       0.980857

     8   C  -   2   C       0.994867       0.975404
     8   C  -  14   H       0.963524       0.981661
     8   C  -  10   H       0.960092       0.980686
     8   C  -  12   H       0.959466       0.979948
     8   C  -   3   O       0.029065       0.014852

     9   C  -   2   C       0.994867       0.975404
     9   C  -  15   H       0.963524       0.981661
     9   C  -  11   H       0.960092       0.980686
     9   C  -  13   H       0.959466       0.979948
     9   C  -   3   O       0.029065       0.014852

    10   H  -   8   C       0.960092       0.980686

    11   H  -   9   C       0.960092       0.980686

    12   H  -   8   C       0.959466       0.979948

    13   H  -   9   C       0.959466       0.979948

    14   H  -   8   C       0.963524       0.981661

    15   H  -   9   C       0.963524       0.981661


 Valency analysis:

   CEN ATOM   TOT.VALENCE
     1   C       3.940771
     2   C       3.929516
     3   O       1.925112
     4   H       0.883858
     5   H       0.982958
     6   H       0.980522
     7   H       0.980522
     8   C       3.943335
     9   C       3.943335
    10   H       0.980590
    11   H       0.980590
    12   H       0.982368
    13   H       0.982368
    14   H       0.984426
    15   H       0.984426

 Total charge composition:

   CEN ATOM         s          p       ELECTRONS ->P.CHARGE
     1   C       3.04389    3.35722      6.40111   -0.40111
     2   C       2.94279    2.80298      5.74577    0.25423
     3   O       3.65371    4.91497      8.56867   -0.56867
     4   H       0.65920                 0.65920    0.34080
     5   H       0.86946                 0.86946    0.13054
     6   H       0.86044                 0.86044    0.13956
     7   H       0.86044                 0.86044    0.13956
     8   C       3.05063    3.36373      6.41436   -0.41436
     9   C       3.05063    3.36373      6.41436   -0.41436
    10   H       0.86068                 0.86068    0.13932
    11   H       0.86068                 0.86068    0.13932
    12   H       0.86721                 0.86721    0.13279
    13   H       0.86721                 0.86721    0.13279
    14   H       0.87520                 0.87520    0.12480
    15   H       0.87520                 0.87520    0.12480

 Total charge composition, AO contributions:

   CEN ATOM SHL      SPHERICAL COMPONENTS
     1   C  1s       1.99131
     1   C  2s       1.05258
     1   C  2p       1.03468    1.15504    1.16750

     2   C  1s       1.99292
     2   C  2s       0.94987
     2   C  2p       1.00725    0.78471    1.01102

     3   O  1s       1.99719
     3   O  2s       1.65652
     3   O  2p       1.46979    1.49171    1.95346

     4   H  1s       0.65920

     5   H  1s       0.86946

     6   H  1s       0.86044

     7   H  1s       0.86044

     8   C  1s       1.99141
     8   C  2s       1.05922
     8   C  2p       1.13775    1.13705    1.08893

     9   C  1s       1.99141
     9   C  2s       1.05922
     9   C  2p       1.13775    1.13705    1.08893

    10   H  1s       0.86068

    11   H  1s       0.86068

    12   H  1s       0.86721

    13   H  1s       0.86721

    14   H  1s       0.87520

    15   H  1s       0.87520

 Summary of localized orbital composition:   [THRPRINT= 0.020]

   ORB  GRP  ORB.ENERGY      CENTERS/CHARGES
     1   1   -18.649766      O  3   2.000
     2   1    -9.914119      C  2   2.000
     3   1    -9.825696      C  9   2.000
     4   1    -9.825696      C  8   2.000
     5   1    -9.820002      C  1   2.000
     6   1    -0.710490      O  3   1.343   H  4   0.647
     7   1    -0.668280      O  3   1.287   C  2   0.694
     8   1    -0.531524      C  8   1.005   C  2   0.979
     9   1    -0.531524      C  9   1.005   C  2   0.979
    10   1    -0.531074      C  1   0.989   C  2   0.987   (other: 0.024)
    11   1    -0.526658      O  3   1.981
    12   1    -0.470173      C  8   1.129   H 12   0.857
    13   1    -0.470173      C  9   1.129   H 13   0.857
    14   1    -0.468306      C  9   1.120   H 15   0.868
    15   1    -0.468306      C  8   1.120   H 14   0.868
    16   1    -0.466160      C  1   1.124   H  5   0.862
    17   1    -0.464316      C  8   1.137   H 10   0.853
    18   1    -0.464316      C  9   1.137   H 11   0.853
    19   1    -0.459903      C  1   1.136   H  7   0.852
    20   1    -0.459903      C  1   1.136   H  6   0.852
    21   1    -0.266893      O  3   1.953   (other: 0.047)

 Localized orbitals saved to record      2100.2  (orbital set 2)


 **********************************************************************************************************************************
 DATASETS  * FILE   NREC   LENGTH (MB)   RECORD NAMES
              1      20    23759.30       500      610      700      900      950      970     1000      129      960     1100   
                                          VAR    BASINP    GEOM    SYMINP    ZMAT    AOBASIS   BASIS     P2S    ABASIS      S 
                                         1400     1410     1200     1210     1080     1600     1650     1300     1700     1800   
                                           T        V       H0       H01     AOSYM     SMH    MOLCAS    ERIS     OPER     GRID   

              2       5        9.01       700     1000      520     1800     2100   
                                         GEOM     BASIS   MCVARS    GRID      RKS  

 PROGRAMS   *        TOTAL      IBBA        KS       INT
 CPU TIMES  *       985.53      0.28    532.76    452.35
 REAL TIME  *     24449.17 SEC
 DISK USED  *        89.43 GB      
 **********************************************************************************************************************************
 Molecular orbitals read from record     2100.2  Type=RKS/LOCAL(IBO)  
 Occupation numbers read from record     2100.2  Type=RKS/LOCAL(IBO)  
 Orbital energies read from record       2100.2  Type=RKS/LOCAL(IBO)  
 Redundancy group numbers read from rec  2100.2  Type=RKS/LOCAL(IBO)  

 IBBA/aug-cc-pVTZ energy=      0.000000000000

        KS-SCF  
   -234.93061945
 **********************************************************************************************************************************
 Molpro calculation terminated
