
 Primary working directories    : /local
 Secondary working directories  : /local
 Wavefunction directory         : /local/
 Main file repository           : /local/

 SHA1      : b4a5b34a9e711420743f49e6833241d17c61fb3c
 NAME      : 2099.9.b4a5b34
 ARCHNAME  : linux/x86_64_openmp
 FC        : /cm/shared/languages/GCC-6.1/bin/gfortran
 BLASLIB   : -lblas
 id        : simonbennie

 Nodes     nprocs
 node47-021    1

 Using customized tuning parameters: mindgm=1; mindgv=20; mindgc=4; mindgr=1; noblas=0; minvec=7
 default implementation of scratch files=df  

 memory,500,m
 geomtyp=xyz
 nosym
 noorient
 geometry={
 C         -1.53233        0.02247        0.00000
 C         -0.00192        0.01421        0.00000
 O          0.37239        1.40356        0.00000
 H          1.34248        1.44036        0.00000
 H         -1.92991       -0.99819        0.00000
 H         -1.90797        0.54382       -0.88653
 H         -1.90797        0.54382        0.88653
 C          0.54303       -0.66466       -1.26580
 C          0.54303       -0.66466        1.26580
 H          0.17836       -0.14752       -2.15943
 H          0.17836       -0.14752        2.15943
 H          0.23752       -1.71600       -1.32280
 H          0.23752       -1.71600        1.32280
 H          1.64084       -0.63767       -1.28032
 H          1.64084       -0.63767        1.28032
 }
 basis={ default,avdz }
 {uks,B-P,direct;wf,42,1,0}
 {ibba,bonds=1}

 Variables initialized (895), CPU time= 0.00 sec
 Commands  initialized (725), CPU time= 0.02 sec, 591 directives.
 Default parameters read. Elapsed time= 0.11 sec

 Checking input...
 Passed
1


                                         ***  PROGRAM SYSTEM MOLPRO  ***
                                       Copyright, TTI GmbH Stuttgart, 2015
                                    Version 2099.9 linked May 26 2017 16:03:21


 **********************************************************************************************************************************
 LABEL *                                                                                 
  64 bit serial version                                                                  DATE: 12-Jun-17          TIME: 16:34:54  
 **********************************************************************************************************************************

 SHA1:             b4a5b34a9e711420743f49e6833241d17c61fb3c
 **********************************************************************************************************************************
 SETTING GEOMTYP        =    XYZ

 Variable memory set to  500000000 words,  buffer space 

 ZSYMEL=NOSYM

 SETTING BASIS          =    AVDZ


 Recomputing integrals since basis changed


 Using spherical harmonics

 Library entry C      S aug-cc-pVDZ          selected for orbital group  1
 Library entry C      P aug-cc-pVDZ          selected for orbital group  1
 Library entry C      D aug-cc-pVDZ          selected for orbital group  1
 Library entry O      S aug-cc-pVDZ          selected for orbital group  2
 Library entry O      P aug-cc-pVDZ          selected for orbital group  2
 Library entry O      D aug-cc-pVDZ          selected for orbital group  2
 Library entry H      S aug-cc-pVDZ          selected for orbital group  3
 Library entry H      P aug-cc-pVDZ          selected for orbital group  3


 PROGRAM * SEWARD (Integral evaluation for generally contracted gaussian basis sets)     Author: Roland Lindh, 1990

 Geometry written to block  1 of record 700


 Point group  C1  



 ATOMIC COORDINATES

 NR  ATOM    CHARGE       X              Y              Z

   1  C       6.00   -2.895684032    0.042462146    0.000000000
   2  C       6.00   -0.003628274    0.026853008    0.000000000
   3  O       8.00    0.703715112    2.652343999    0.000000000
   4  H       1.00    2.536919528    2.721885921    0.000000000
   5  H       1.00   -3.647001345   -1.886305720    0.000000000
   6  H       1.00   -3.605540754    1.027670861   -1.675298901
   7  H       1.00   -3.605540754    1.027670861    1.675298901
   8  C       6.00    1.026177977   -1.256025366   -2.392015328
   9  C       6.00    1.026177977   -1.256025366    2.392015328
  10  H       1.00    0.337051552   -0.278772398   -4.080731285
  11  H       1.00    0.337051552   -0.278772398    4.080731285
  12  H       1.00    0.448847749   -3.242770030   -2.499729718
  13  H       1.00    0.448847749   -3.242770030    2.499729718
  14  H       1.00    3.100738214   -1.205021658   -2.419454152
  15  H       1.00    3.100738214   -1.205021658    2.419454152

 Bond lengths in Bohr (Angstrom)

 1-2  2.892097881  1-5  2.069933136  1-6  2.069096224  1-7  2.069096224  2-3  2.719106031
     ( 1.530432290)     ( 1.095361444)     ( 1.094918569)     ( 1.094918569)     ( 1.438888946)

  2- 8  2.903104402   2- 9  2.903104402   3- 4  1.834522965   8-10  2.069222119   8-12  2.071730422
       ( 1.536256691)       ( 1.536256691)       ( 0.970787746)       ( 1.094985190)       ( 1.096312526)

  8-14  2.075368508   9-11  2.069222119   9-13  2.071730422   9-15  2.075368508
       ( 1.098237719)       ( 1.094985190)       ( 1.096312526)       ( 1.098237719)

 Bond angles

  1-2-3  104.76902697   1-2-8  110.92255387   1-2-9  110.92255387   2-1-5  110.97328220

  2- 1- 6  110.22090701   2- 1- 7  110.22090701   2- 3- 4  107.25071562   2- 8-10  110.21836376

  2- 8-12  111.57747468   2- 8-14  110.77023896   2- 9-11  110.21836376   2- 9-13  111.57747468

  2- 9-15  110.77023896   3- 2- 8  109.53648747   3- 2- 9  109.53648747   5- 1- 6  108.61190457

  5- 1- 7  108.61190457   6- 1- 7  108.12870271   8- 2- 9  110.96453384  10- 8-12  108.52192632

 10- 8-14  108.08997829  11- 9-13  108.52192632  11- 9-15  108.08997829  12- 8-14  107.54424578

 13- 9-15  107.54424578

 NUCLEAR CHARGE:                   42
 NUMBER OF PRIMITIVE AOS:         295
 NUMBER OF SYMMETRY AOS:          285
 NUMBER OF CONTRACTIONS:          205   ( 205A   )
 NUMBER OF CORE ORBITALS:           5   (   5A   )
 NUMBER OF VALENCE ORBITALS:       30   (  30A   )


 NUCLEAR REPULSION ENERGY  198.77359127


 Eigenvalues of metric

         1 0.151E-04 0.552E-04 0.579E-04 0.110E-03 0.111E-03 0.217E-03 0.237E-03 0.259E-03


 Contracted 2-electron integrals neglected if value below      1.0D-12
 AO integral compression algorithm  1   Integral accuracy      1.0D-12

     1203.503 MB (compressed) written to integral file ( 61.3%)


 NUMBER OF SORTED TWO-ELECTRON INTEGRALS:  222932170.     BUFFER LENGTH:  32768
 NUMBER OF SEGMENTS:  14  SEGMENT LENGTH:   15999503      RECORD LENGTH: 524288

 Memory used in sort:      16.56 MW

 SORT1 READ   245224724. AND WROTE   218324786. INTEGRALS IN    630 RECORDS. CPU TIME:     2.88 SEC, REAL TIME:     5.69 SEC
 SORT2 READ   218324786. AND WROTE   222932170. INTEGRALS IN   4591 RECORDS. CPU TIME:     4.69 SEC, REAL TIME:     6.31 SEC

 FILE SIZES:   FILE 1:  1235.3 MBYTE,  FILE 4:  2642.4 MBYTE,   TOTAL:   3877.7 MBYTE

 OPERATOR DM      FOR CENTER  0  COORDINATES:    0.000000    0.000000    0.000000


 **********************************************************************************************************************************
 DATASETS  * FILE   NREC   LENGTH (MB)   RECORD NAMES
              1      19     1149.90       500      610      700      900      950      970     1000      129      960     1100   
                                          VAR    BASINP    GEOM    SYMINP    ZMAT    AOBASIS   BASIS     P2S    ABASIS      S 
                                         1400     1410     1200     1210     1080     1600     1650     1300     1700   
                                           T        V       H0       H01     AOSYM     SMH    MOLCAS    ERIS     OPER   

 PROGRAMS   *        TOTAL       INT
 CPU TIMES  *        19.41     19.26
 REAL TIME  *        44.55 SEC
 DISK USED  *         3.88 GB      
 **********************************************************************************************************************************

 Density functional group B-P=B88+P86
 Functional: B88(Automatically generated (new) B88)                            Gradient terms: 1
 Functional: P86(Automatically generated (new) P86)                            Gradient terms: 1
 Use grid at  1800.2

 Functional: B88                       Factor:  1.0000
 Functional: P86                       Factor:  1.0000

 Generated new metagrid on record  1800.2 with target accuracy 1.0D-06 and 53396 points in CPU time    1.6
 Computed new grid on record 1800.1 in CPU time    1.8
  167289 words reserved for DFT integration

 PROGRAM * UKS-SCF (Unrestricted Kohn-Sham)     Authors: W. Meyer, H.-J. Werner, P.J. Knowles, 1993

 NUMBER OF ELECTRONS:      21+   21-    SPACE SYMMETRY=1    SPIN SYMMETRY: Singlet 
 CONVERGENCE THRESHOLDS:    1.00E-05 (Density)    1.00E-06 (Energy)
 MAX. NUMBER OF ITERATIONS:       60
 INTERPOLATION TYPE:            DIIS
 INTERPOLATION STEPS:              2 (START)      1 (STEP)
 LEVEL SHIFTS:                 -0.20 (ALPHA)  -0.20 (BETA) 



 Use fine grid record 1800.2 for energy threshold  1.0D-06
 Orbital guess generated from atomic densities. Full valence occupancy:   35

 Molecular orbital dump at record        2200.2

 Initial alpha occupation  21
 Initial beta  occupation  21

 ITERATION    DDIFF          GRAD             ENERGY        2-EL.EN.            DIPOLE MOMENTS         DIIS
    1      0.000D+00      0.000D+00      -233.42644806    639.012545    0.68914   -0.74431    0.00000    0
    2      0.248D-01      0.357D-02      -233.64606726    614.712506    0.17183   -0.46416    0.00000    1
    3      0.905D-02      0.193D-02      -233.70748451    622.016025    0.34540   -0.57321    0.00000    2
    4      0.175D-02      0.262D-03      -233.70885758    621.617301    0.32380   -0.51154    0.00000    3
    5      0.106D-02      0.124D-03      -233.70932284    621.535445    0.32136   -0.52293    0.00000    4
    6      0.601D-03      0.336D-04      -233.70941035    621.506382    0.32000   -0.51628    0.00000    5
    7      0.171D-03      0.147D-04      -233.70941797    621.463801    0.31771   -0.51652    0.00000    6
    8      0.818D-04      0.703D-05      -233.70941970    621.473265    0.31740   -0.51754    0.00000    7
    9      0.231D-04      0.102D-05      -233.70941980    621.471258    0.31747   -0.51689    0.00000    7
   10      0.757D-05      0.362D-06      -233.70941981    621.472262    0.31731   -0.51714    0.00000    7
   11      0.197D-05      0.146D-06      -233.70941981    621.471586    0.31732   -0.51710    0.00000    7

 Final alpha occupancy:  21
 Final beta  occupancy:  21

 !UKS STATE 1.1 Energy               -233.709419808797
 Nuclear energy                       198.77359127
 One-electron energy                 -709.19068539
 Two-electron energy                  310.73579288
 Density functional                   -34.02811857     B88=-32.52340202 P86= -1.50471655
 Virial quotient                       -1.00746907
 !UKS STATE 1.1 Dipole moment           0.31732128    -0.51709529     0.00000000
 Dipole moment /Debye                   0.80649743    -1.31423906     0.00000000

 Orbital energies for positive spin:

         1.1          2.1          3.1          4.1          5.1          6.1          7.1          8.1          9.1         10.1
    -18.789874    -9.969352    -9.903603    -9.903577    -9.898777    -0.938651    -0.720748    -0.629835    -0.629221    -0.518568

        11.1         12.1         13.1         14.1         15.1         16.1         17.1         18.1         19.1         20.1
     -0.443878    -0.408095    -0.405129    -0.370003    -0.356383    -0.340416    -0.326484    -0.315930    -0.309130    -0.282883

        21.1         22.1         23.1
     -0.229852    -0.023228     0.003820

 Orbital energies for negative spin:

         1.1          2.1          3.1          4.1          5.1          6.1          7.1          8.1          9.1         10.1
    -18.789874    -9.969352    -9.903603    -9.903577    -9.898777    -0.938651    -0.720748    -0.629835    -0.629221    -0.518568

        11.1         12.1         13.1         14.1         15.1         16.1         17.1         18.1         19.1         20.1
     -0.443878    -0.408095    -0.405129    -0.370003    -0.356383    -0.340416    -0.326484    -0.315930    -0.309130    -0.282883

        21.1         22.1         23.1
     -0.229852    -0.023228     0.003820

 HOMO     21.1    -0.229852 =      -6.2546eV
 LUMO     22.1    -0.023228 =      -0.6321eV
 LUMO-HOMO         0.206623 =       5.6225eV

 EXPECTATION VALUE OF S**2:             0.00000000

 Natural orbitals saved to record    2200.2 (Orbital set 3)

 Orbital spaces for UNO-CAS (Min. occupation: 0.020  Max. occupation: 1.980):

 Closed:       21
 Active:        0


 **********************************************************************************************************************************
 DATASETS  * FILE   NREC   LENGTH (MB)   RECORD NAMES
              1      20     1151.61       500      610      700      900      950      970     1000      129      960     1100   
                                          VAR    BASINP    GEOM    SYMINP    ZMAT    AOBASIS   BASIS     P2S    ABASIS      S 
                                         1400     1410     1200     1210     1080     1600     1650     1300     1700     1800   
                                           T        V       H0       H01     AOSYM     SMH    MOLCAS    ERIS     OPER     GRID   

              2       5        4.72       700     1000      520     1800     2200   
                                         GEOM     BASIS   MCVARS    GRID      UKS  

 PROGRAMS   *        TOTAL       UKS       INT
 CPU TIMES  *       102.04     82.63     19.26
 REAL TIME  *       159.11 SEC
 DISK USED  *         3.88 GB      
 **********************************************************************************************************************************


 PROGRAM * Intrinsic Basis Bonding Analysis (IBBA)          Author: G. Knizia

 Molecular orbitals read from record     2200.2  Type=UKS/ALPHA (state 1.1)
 Fock matrix read from record            2200.2  Type=UKS/TOTAL (state 1.1)
 Orbital energies read from record       2200.2  Type=UKS/ALPHA (state 1.1)
 Density matrix read from record         2200.2  Type=UKS/CHARGE (state 1.1)

 Number of core orbitals:           5 (   5 )
 Number of closed-shell orbitals:  16 (  16 )

 Basis set MINAO-AUTO-PP generated.      Number of basis functions:   35 

 Polarized AO type:                A = (O Ot + (1-O)(1-Ot)) P12
 Orthogonalization method:         Symmetric (Loewdin)
 Localization functional:          L = sum[A,i] <i|n_A|i>^4 -> max

 Localization group 1:  21 orbitals, occupancy  2.000
 Iterative localization: IB/PM,    7 iter; Final gradient 0.50E-08

 Bond order analysis:       [THRPRINT= 0.020]

   CEN ATOM   CEN ATOM     WIBERG.BO      RENORM.BO
     1   C  -   2   C       0.996689       0.993212
     1   C  -   5   H       0.960127       0.986133
     1   C  -   6   H       0.955409       0.979840
     1   C  -   7   H       0.955409       0.979840

     2   C  -   1   C       0.996689       0.993212
     2   C  -   9   C       0.995246       0.974033
     2   C  -   8   C       0.995246       0.974033
     2   C  -   3   O       0.935559       0.943642

     3   O  -   2   C       0.935559       0.943642
     3   O  -   4   H       0.859978       0.973490
     3   O  -   9   C       0.030483       0.015594
     3   O  -   8   C       0.030483       0.015594

     4   H  -   3   O       0.859978       0.973490

     5   H  -   1   C       0.960127       0.986133

     6   H  -   1   C       0.955409       0.979840

     7   H  -   1   C       0.955409       0.979840

     8   C  -   2   C       0.995246       0.974033
     8   C  -  14   H       0.959608       0.980685
     8   C  -  10   H       0.956023       0.979673
     8   C  -  12   H       0.955241       0.978881
     8   C  -   3   O       0.030483       0.015594

     9   C  -   2   C       0.995246       0.974033
     9   C  -  15   H       0.959608       0.980685
     9   C  -  11   H       0.956023       0.979673
     9   C  -  13   H       0.955241       0.978881
     9   C  -   3   O       0.030483       0.015594

    10   H  -   8   C       0.956023       0.979673

    11   H  -   9   C       0.956023       0.979673

    12   H  -   8   C       0.955241       0.978881

    13   H  -   9   C       0.955241       0.978881

    14   H  -   8   C       0.959608       0.980685

    15   H  -   9   C       0.959608       0.980685


 Valency analysis:

   CEN ATOM   TOT.VALENCE
     1   C       3.932878
     2   C       3.933736
     3   O       1.931327
     4   H       0.881707
     5   H       0.980411
     6   H       0.977898
     7   H       0.977898
     8   C       3.935581
     9   C       3.935581
    10   H       0.977976
    11   H       0.977976
    12   H       0.979819
    13   H       0.979819
    14   H       0.982082
    15   H       0.982082

 Total charge composition:

   CEN ATOM         s          p       ELECTRONS ->P.CHARGE
     1   C       3.04697    3.38253      6.42949   -0.42949
     2   C       2.94323    2.80774      5.75097    0.24903
     3   O       3.65543    4.90852      8.56395   -0.56395
     4   H       0.65606                 0.65606    0.34394
     5   H       0.86004                 0.86004    0.13996
     6   H       0.85133                 0.85133    0.14867
     7   H       0.85133                 0.85133    0.14867
     8   C       3.05389    3.38884      6.44273   -0.44273
     9   C       3.05389    3.38884      6.44273   -0.44273
    10   H       0.85160                 0.85160    0.14840
    11   H       0.85160                 0.85160    0.14840
    12   H       0.85794                 0.85794    0.14206
    13   H       0.85794                 0.85794    0.14206
    14   H       0.86614                 0.86614    0.13386
    15   H       0.86614                 0.86614    0.13386

 Total charge composition, AO contributions:

   CEN ATOM SHL      SPHERICAL COMPONENTS
     1   C  1s       1.99133
     1   C  2s       1.05564
     1   C  2p       1.03939    1.16529    1.17785

     2   C  1s       1.99294
     2   C  2s       0.95029
     2   C  2p       1.00702    0.79027    1.01046

     3   O  1s       1.99719
     3   O  2s       1.65824
     3   O  2p       1.47109    1.48612    1.95132

     4   H  1s       0.65606

     5   H  1s       0.86004

     6   H  1s       0.85133

     7   H  1s       0.85133

     8   C  1s       1.99143
     8   C  2s       1.06246
     8   C  2p       1.14722    1.14631    1.09531

     9   C  1s       1.99143
     9   C  2s       1.06246
     9   C  2p       1.14722    1.14631    1.09531

    10   H  1s       0.85160

    11   H  1s       0.85160

    12   H  1s       0.85794

    13   H  1s       0.85794

    14   H  1s       0.86614

    15   H  1s       0.86614

 Summary of localized orbital composition:   [THRPRINT= 0.020]

   ORB  GRP  ORB.ENERGY      CENTERS/CHARGES
     1   1   -18.634412      O  3   2.000
     2   1    -9.879642      C  2   2.000
     3   1    -9.791195      C  8   2.000
     4   1    -9.791195      C  9   2.000
     5   1    -9.785608      C  1   2.000
     6   1    -0.702990      O  3   1.347   H  4   0.643
     7   1    -0.661552      O  3   1.281   C  2   0.699
     8   1    -0.524564      C  8   1.007   C  2   0.977
     9   1    -0.524564      C  9   1.007   C  2   0.977
    10   1    -0.524416      C  1   0.991   C  2   0.984   (other: 0.025)
    11   1    -0.521287      O  3   1.980
    12   1    -0.459067      C  9   1.137   H 13   0.847
    13   1    -0.459067      C  8   1.137   H 12   0.847
    14   1    -0.457332      C  9   1.129   H 15   0.858
    15   1    -0.457332      C  8   1.129   H 14   0.858
    16   1    -0.455229      C  1   1.132   H  5   0.852
    17   1    -0.453058      C  8   1.146   H 10   0.843
    18   1    -0.453058      C  9   1.146   H 11   0.843
    19   1    -0.448895      C  1   1.145   H  7   0.843
    20   1    -0.448895      C  1   1.145   H  6   0.843
    21   1    -0.257150      O  3   1.951   (other: 0.049)

 Localized orbitals saved to record      2200.2  (orbital set 4)


 **********************************************************************************************************************************
 DATASETS  * FILE   NREC   LENGTH (MB)   RECORD NAMES
              1      20     1151.61       500      610      700      900      950      970     1000      129      960     1100   
                                          VAR    BASINP    GEOM    SYMINP    ZMAT    AOBASIS   BASIS     P2S    ABASIS      S 
                                         1400     1410     1200     1210     1080     1600     1650     1300     1700     1800   
                                           T        V       H0       H01     AOSYM     SMH    MOLCAS    ERIS     OPER     GRID   

              2       5        5.06       700     1000      520     1800     2200   
                                         GEOM     BASIS   MCVARS    GRID      UKS  

 PROGRAMS   *        TOTAL      IBBA       UKS       INT
 CPU TIMES  *       102.11      0.07     82.63     19.26
 REAL TIME  *       159.28 SEC
 DISK USED  *         3.88 GB      
 **********************************************************************************************************************************
 Molecular orbitals read from record     2200.2  Type=UKS/LOCAL(IBO)  
 Occupation numbers read from record     2200.2  Type=UKS/LOCAL(IBO)  
 Orbital energies read from record       2200.2  Type=UKS/LOCAL(IBO)  
 Redundancy group numbers read from rec  2200.2  Type=UKS/BETA (state 1.1)

 IBBA/aug-cc-pVDZ energy=      0.000000000000

        UKS-SCF 
   -233.70941981
 **********************************************************************************************************************************
 Molpro calculation terminated
