
 Primary working directories    : /local
 Secondary working directories  : /local
 Wavefunction directory         : /local/
 Main file repository           : /local/

 SHA1      : b4a5b34a9e711420743f49e6833241d17c61fb3c
 NAME      : 2099.9.b4a5b34
 ARCHNAME  : linux/x86_64_openmp
 FC        : /cm/shared/languages/GCC-6.1/bin/gfortran
 BLASLIB   : -lblas
 id        : simonbennie

 Nodes     nprocs
 node44-021    1

 Using customized tuning parameters: mindgm=1; mindgv=20; mindgc=4; mindgr=1; noblas=0; minvec=7
 default implementation of scratch files=df  

 memory,500,m
 geomtyp=xyz
 nosym
 noorient
 geometry={
 C         -1.53233        0.02247        0.00000
 C         -0.00192        0.01421        0.00000
 O          0.37239        1.40356        0.00000
 H          1.34248        1.44036        0.00000
 H         -1.92991       -0.99819        0.00000
 H         -1.90797        0.54382       -0.88653
 H         -1.90797        0.54382        0.88653
 C          0.54303       -0.66466       -1.26580
 C          0.54303       -0.66466        1.26580
 H          0.17836       -0.14752       -2.15943
 H          0.17836       -0.14752        2.15943
 H          0.23752       -1.71600       -1.32280
 H          0.23752       -1.71600        1.32280
 H          1.64084       -0.63767       -1.28032
 H          1.64084       -0.63767        1.28032
 }
 basis={ default,tzvp }
 {ks,MM06,direct;wf,42,1,0}
 {ibba,bonds=1}

 Variables initialized (895), CPU time= 0.00 sec
 Commands  initialized (725), CPU time= 0.01 sec, 591 directives.
 Default parameters read. Elapsed time= 0.08 sec

 Checking input...
 Passed
1


                                         ***  PROGRAM SYSTEM MOLPRO  ***
                                       Copyright, TTI GmbH Stuttgart, 2015
                                    Version 2099.9 linked May 26 2017 16:03:21


 **********************************************************************************************************************************
 LABEL *                                                                                 
  64 bit serial version                                                                  DATE: 12-Jun-17          TIME: 19:34:18  
 **********************************************************************************************************************************

 SHA1:             b4a5b34a9e711420743f49e6833241d17c61fb3c
 **********************************************************************************************************************************
 SETTING GEOMTYP        =    XYZ

 Variable memory set to  500000000 words,  buffer space 

 ZSYMEL=NOSYM

 SETTING BASIS          =    TZVP


 Recomputing integrals since basis changed


 Using spherical harmonics

 Library entry C      S def2-TZVP            selected for orbital group  1
 Library entry C      P def2-TZVP            selected for orbital group  1
 Library entry C      D def2-TZVP            selected for orbital group  1
 Library entry C      F def2-TZVP            selected for orbital group  1
 Library entry O      S def2-TZVP            selected for orbital group  2
 Library entry O      P def2-TZVP            selected for orbital group  2
 Library entry O      D def2-TZVP            selected for orbital group  2
 Library entry O      F def2-TZVP            selected for orbital group  2
 Library entry H      S def2-TZVP            selected for orbital group  3
 Library entry H      P def2-TZVP            selected for orbital group  3


 PROGRAM * SEWARD (Integral evaluation for generally contracted gaussian basis sets)     Author: Roland Lindh, 1990

 Geometry written to block  1 of record 700


 Point group  C1  



 ATOMIC COORDINATES

 NR  ATOM    CHARGE       X              Y              Z

   1  C       6.00   -2.895684032    0.042462146    0.000000000
   2  C       6.00   -0.003628274    0.026853008    0.000000000
   3  O       8.00    0.703715112    2.652343999    0.000000000
   4  H       1.00    2.536919528    2.721885921    0.000000000
   5  H       1.00   -3.647001345   -1.886305720    0.000000000
   6  H       1.00   -3.605540754    1.027670861   -1.675298901
   7  H       1.00   -3.605540754    1.027670861    1.675298901
   8  C       6.00    1.026177977   -1.256025366   -2.392015328
   9  C       6.00    1.026177977   -1.256025366    2.392015328
  10  H       1.00    0.337051552   -0.278772398   -4.080731285
  11  H       1.00    0.337051552   -0.278772398    4.080731285
  12  H       1.00    0.448847749   -3.242770030   -2.499729718
  13  H       1.00    0.448847749   -3.242770030    2.499729718
  14  H       1.00    3.100738214   -1.205021658   -2.419454152
  15  H       1.00    3.100738214   -1.205021658    2.419454152

 Bond lengths in Bohr (Angstrom)

 1-2  2.892097881  1-5  2.069933136  1-6  2.069096224  1-7  2.069096224  2-3  2.719106031
     ( 1.530432290)     ( 1.095361444)     ( 1.094918569)     ( 1.094918569)     ( 1.438888946)

  2- 8  2.903104402   2- 9  2.903104402   3- 4  1.834522965   8-10  2.069222119   8-12  2.071730422
       ( 1.536256691)       ( 1.536256691)       ( 0.970787746)       ( 1.094985190)       ( 1.096312526)

  8-14  2.075368508   9-11  2.069222119   9-13  2.071730422   9-15  2.075368508
       ( 1.098237719)       ( 1.094985190)       ( 1.096312526)       ( 1.098237719)

 Bond angles

  1-2-3  104.76902697   1-2-8  110.92255387   1-2-9  110.92255387   2-1-5  110.97328220

  2- 1- 6  110.22090701   2- 1- 7  110.22090701   2- 3- 4  107.25071562   2- 8-10  110.21836376

  2- 8-12  111.57747468   2- 8-14  110.77023896   2- 9-11  110.21836376   2- 9-13  111.57747468

  2- 9-15  110.77023896   3- 2- 8  109.53648747   3- 2- 9  109.53648747   5- 1- 6  108.61190457

  5- 1- 7  108.61190457   6- 1- 7  108.12870271   8- 2- 9  110.96453384  10- 8-12  108.52192632

 10- 8-14  108.08997829  11- 9-13  108.52192632  11- 9-15  108.08997829  12- 8-14  107.54424578

 13- 9-15  107.54424578

 NUCLEAR CHARGE:                   42
 NUMBER OF PRIMITIVE AOS:         335
 NUMBER OF SYMMETRY AOS:          310
 NUMBER OF CONTRACTIONS:          215   ( 215A   )
 NUMBER OF CORE ORBITALS:           5   (   5A   )
 NUMBER OF VALENCE ORBITALS:       30   (  30A   )


 NUCLEAR REPULSION ENERGY  198.77359127


 Eigenvalues of metric

         1 0.262E-03 0.510E-03 0.539E-03 0.594E-03 0.697E-03 0.755E-03 0.210E-02 0.239E-02


 Contracted 2-electron integrals neglected if value below      1.0D-11
 AO integral compression algorithm  1   Integral accuracy      1.0D-11

     977.797 MB (compressed) written to integral file ( 41.7%)


 NUMBER OF SORTED TWO-ELECTRON INTEGRALS:  269595810.     BUFFER LENGTH:  32768
 NUMBER OF SEGMENTS:  17  SEGMENT LENGTH:   15999762      RECORD LENGTH: 524288

 Memory used in sort:      16.56 MW

 SORT1 READ   292827432. AND WROTE   238500613. INTEGRALS IN    690 RECORDS. CPU TIME:     3.62 SEC, REAL TIME:     6.83 SEC
 SORT2 READ   238500613. AND WROTE   269595810. INTEGRALS IN   3730 RECORDS. CPU TIME:     5.80 SEC, REAL TIME:    37.34 SEC

 FILE SIZES:   FILE 1:  1009.7 MBYTE,  FILE 4:  2894.1 MBYTE,   TOTAL:   3903.8 MBYTE

 OPERATOR DM      FOR CENTER  0  COORDINATES:    0.000000    0.000000    0.000000


 **********************************************************************************************************************************
 DATASETS  * FILE   NREC   LENGTH (MB)   RECORD NAMES
              1      19      926.27       500      610      700      900      950      970     1000      129      960     1100   
                                          VAR    BASINP    GEOM    SYMINP    ZMAT    AOBASIS   BASIS     P2S    ABASIS      S 
                                         1400     1410     1200     1210     1080     1600     1650     1300     1700   
                                           T        V       H0       H01     AOSYM     SMH    MOLCAS    ERIS     OPER   

 PROGRAMS   *        TOTAL       INT
 CPU TIMES  *        26.12     25.98
 REAL TIME  *        63.58 SEC
 DISK USED  *         3.90 GB      
 **********************************************************************************************************************************

 Density functional group MM06=M06X+M06C
 Functional: M06X(Automatically generated (new) M06X)                          Gradient terms: 2
 Functional: M06C(Automatically generated (new) M06C)                          Gradient terms: 2
 Use grid at  1800.2


 Exact exchange will be calculated, factor:  0.2700

 Functional: M06X                      Factor:  0.7300
 Functional: M06C                      Factor:  1.0000

 Generated new metagrid on record  1800.2 with target accuracy 1.0D-06 and 54596 points in CPU time    1.6
 Computed new grid on record 1800.1 in CPU time    1.8
  339049 words reserved for DFT integration

 PROGRAM * RKS-SCF (Restricted closed shell Kohn-Sham)     Authors: W. Meyer, H.-J. Werner, P.J. Knowles, 1993

 NUMBER OF ELECTRONS:      21+   21-    SPACE SYMMETRY=1    SPIN SYMMETRY: Singlet 
 CONVERGENCE THRESHOLDS:    1.00E-05 (Density)    1.00E-06 (Energy)
 MAX. NUMBER OF ITERATIONS:       60
 INTERPOLATION TYPE:            DIIS
 INTERPOLATION STEPS:              2 (START)      1 (STEP)
 LEVEL SHIFTS:                  0.00 (CLOSED)  0.00 (OPEN) 



 Use fine grid record 1800.2 for energy threshold  1.0D-06
 Orbital guess generated from atomic densities. Full valence occupancy:   21

 Molecular orbital dump at record        2100.2

 Initial occupancy:  21

 ITERATION    DDIFF          GRAD             ENERGY        2-EL.EN.            DIPOLE MOMENTS         DIIS   ORB.
    1      0.000D+00      0.000D+00      -227.20393003    608.993365    0.68097   -0.63316    0.00000    0    start
    2      0.000D+00      0.514D-02      -227.13386539    585.107069   -0.06136   -0.30819    0.00000    1    diag
    3      0.108D-01      0.677D-02      -227.32403964    599.425292    0.35082   -0.45129    0.00000    2    diag
    4      0.619D-02      0.559D-03      -227.32476792    598.444554    0.34198   -0.43411    0.00000    3    diag
    5      0.560D-03      0.299D-03      -227.32507073    598.839553    0.35105   -0.46920    0.00000    4    diag
    6      0.336D-03      0.606D-04      -227.32507648    598.827757    0.34834   -0.44904    0.00000    5    diag
    7      0.849D-04      0.470D-04      -227.32508288    598.830017    0.34930   -0.45520    0.00000    6    diag
    8      0.279D-04      0.781D-05      -227.32508306    598.830935    0.34956   -0.45660    0.00000    7    diag
    9      0.673D-05      0.122D-05      -227.32508306    598.832163    0.34953   -0.45586    0.00000    0    orth

 Final occupancy:  21

 !RKS STATE 1.1 Energy               -227.325083062154
 Nuclear energy                       198.77359127
 One-electron energy                 -706.96345889
 Two-electron energy                  299.41608166
 SCF exchange energy                  -32.04578289     Factor= 0.2700
 Density functional                   -18.55129711     M06X=-23.07189489 M06C= -1.70881384
 Virial quotient                       -0.99982813
 !RKS STATE 1.1 Dipole moment           0.34953143    -0.45585528     0.00000000
 Dipole moment /Debye                   0.88836208    -1.15859266     0.00000000

 Orbital energies:

         1.1          2.1          3.1          4.1          5.1          6.1          7.1          8.1          9.1         10.1
    -18.808897    -9.971356    -9.910653    -9.910642    -9.905681    -0.971748    -0.738952    -0.642082    -0.641506    -0.520068

        11.1         12.1         13.1         14.1         15.1         16.1         17.1         18.1         19.1         20.1
     -0.444874    -0.409604    -0.406974    -0.368648    -0.354043    -0.335235    -0.319863    -0.311028    -0.304053    -0.277022

        21.1         22.1         23.1
     -0.229442     0.037939     0.085077

 HOMO     21.1    -0.229442 =      -6.2434eV
 LUMO     22.1     0.037939 =       1.0324eV
 LUMO-HOMO         0.267380 =       7.2758eV


 **********************************************************************************************************************************
 DATASETS  * FILE   NREC   LENGTH (MB)   RECORD NAMES
              1      20      928.02       500      610      700      900      950      970     1000      129      960     1100   
                                          VAR    BASINP    GEOM    SYMINP    ZMAT    AOBASIS   BASIS     P2S    ABASIS      S 
                                         1400     1410     1200     1210     1080     1600     1650     1300     1700     1800   
                                           T        V       H0       H01     AOSYM     SMH    MOLCAS    ERIS     OPER     GRID   

              2       5        3.96       700     1000      520     1800     2100   
                                         GEOM     BASIS   MCVARS    GRID      RKS  

 PROGRAMS   *        TOTAL        KS       INT
 CPU TIMES  *       180.88    154.76     25.98
 REAL TIME  *       220.94 SEC
 DISK USED  *         3.90 GB      
 **********************************************************************************************************************************


 PROGRAM * Intrinsic Basis Bonding Analysis (IBBA)          Author: G. Knizia

 Molecular orbitals read from record     2100.2  Type=RKS/CANONICAL (state 1.1)
 Fock matrix read from record            2100.2  Type=RKS/TOTAL (state 1.1)
 Orbital energies read from record       2100.2  Type=RKS/CANONICAL (state 1.1)
 Density matrix read from record         2100.2  Type=RKS/CHARGE (state 1.1)

 Number of core orbitals:           5 (   5 )
 Number of closed-shell orbitals:  16 (  16 )

 Basis set MINAO-AUTO-PP generated.      Number of basis functions:   35 

 Polarized AO type:                A = (O Ot + (1-O)(1-Ot)) P12
 Orthogonalization method:         Symmetric (Loewdin)
 Localization functional:          L = sum[A,i] <i|n_A|i>^4 -> max

 Localization group 1:  21 orbitals, occupancy  2.000
 Iterative localization: IB/PM,    7 iter; Final gradient 0.32E-08

 Bond order analysis:       [THRPRINT= 0.020]

   CEN ATOM   CEN ATOM     WIBERG.BO      RENORM.BO
     1   C  -   2   C       0.994276       0.993689
     1   C  -   5   H       0.965414       0.985489
     1   C  -   6   H       0.960850       0.979166
     1   C  -   7   H       0.960850       0.979166

     2   C  -   1   C       0.994276       0.993689
     2   C  -   9   C       0.993719       0.975502
     2   C  -   8   C       0.993719       0.975502
     2   C  -   3   O       0.938496       0.950569

     3   O  -   2   C       0.938496       0.950569
     3   O  -   4   H       0.875507       0.971910
     3   O  -   8   C       0.029864       0.015323
     3   O  -   9   C       0.029864       0.015323

     4   H  -   3   O       0.875507       0.971910

     5   H  -   1   C       0.965414       0.985489

     6   H  -   1   C       0.960850       0.979166

     7   H  -   1   C       0.960850       0.979166

     8   C  -   2   C       0.993719       0.975502
     8   C  -  14   H       0.964169       0.980189
     8   C  -  10   H       0.961301       0.979022
     8   C  -  12   H       0.961006       0.978932
     8   C  -   3   O       0.029864       0.015323

     9   C  -   2   C       0.993719       0.975502
     9   C  -  15   H       0.964169       0.980189
     9   C  -  11   H       0.961301       0.979022
     9   C  -  13   H       0.961006       0.978932
     9   C  -   3   O       0.029864       0.015323

    10   H  -   8   C       0.961301       0.979022

    11   H  -   9   C       0.961301       0.979022

    12   H  -   8   C       0.961006       0.978932

    13   H  -   9   C       0.961006       0.978932

    14   H  -   8   C       0.964169       0.980189

    15   H  -   9   C       0.964169       0.980189


 Valency analysis:

   CEN ATOM   TOT.VALENCE
     1   C       3.947884
     2   C       3.931970
     3   O       1.947591
     4   H       0.898425
     5   H       0.986273
     6   H       0.984284
     7   H       0.984284
     8   C       3.949855
     9   C       3.949855
    10   H       0.984217
    11   H       0.984217
    12   H       0.985742
    13   H       0.985742
    14   H       0.987720
    15   H       0.987720

 Total charge composition:

   CEN ATOM         s          p       ELECTRONS ->P.CHARGE
     1   C       3.01719    3.35124      6.36843   -0.36843
     2   C       2.91853    2.80724      5.72577    0.27423
     3   O       3.63885    4.89957      8.53842   -0.53842
     4   H       0.68129                 0.68129    0.31871
     5   H       0.88284                 0.88284    0.11716
     6   H       0.87464                 0.87464    0.12536
     7   H       0.87464                 0.87464    0.12536
     8   C       3.02474    3.35810      6.38284   -0.38284
     9   C       3.02474    3.35810      6.38284   -0.38284
    10   H       0.87437                 0.87437    0.12563
    11   H       0.87437                 0.87437    0.12563
    12   H       0.88059                 0.88059    0.11941
    13   H       0.88059                 0.88059    0.11941
    14   H       0.88918                 0.88918    0.11082
    15   H       0.88918                 0.88918    0.11082

 Total charge composition, AO contributions:

   CEN ATOM SHL      SPHERICAL COMPONENTS
     1   C  1s       1.99251
     1   C  2s       1.02468
     1   C  2p       1.04204    1.14900    1.16020

     2   C  1s       1.99396
     2   C  2s       0.92457
     2   C  2p       1.00648    0.79235    1.00841

     3   O  1s       1.99747
     3   O  2s       1.64138
     3   O  2p       1.45439    1.49317    1.95201

     4   H  1s       0.68129

     5   H  1s       0.88284

     6   H  1s       0.87464

     7   H  1s       0.87464

     8   C  1s       1.99260
     8   C  2s       1.03214
     8   C  2p       1.13239    1.13369    1.09202

     9   C  1s       1.99260
     9   C  2s       1.03214
     9   C  2p       1.13239    1.13369    1.09202

    10   H  1s       0.87437

    11   H  1s       0.87437

    12   H  1s       0.88059

    13   H  1s       0.88059

    14   H  1s       0.88918

    15   H  1s       0.88918

 Summary of localized orbital composition:   [THRPRINT= 0.020]

   ORB  GRP  ORB.ENERGY      CENTERS/CHARGES
     1   1   -18.658837      O  3   2.000
     2   1    -9.883384      C  2   2.000
     3   1    -9.801803      C  8   2.000
     4   1    -9.801803      C  9   2.000
     5   1    -9.796123      C  1   2.000
     6   1    -0.706709      O  3   1.322   H  4   0.668
     7   1    -0.679102      O  3   1.280   C  2   0.702
     8   1    -0.529053      C  1   0.996   C  2   0.978   (other: 0.026)
     9   1    -0.528929      C  8   1.014   C  2   0.969
    10   1    -0.528929      C  9   1.014   C  2   0.969
    11   1    -0.526404      O  3   1.980
    12   1    -0.457423      C  9   1.115   H 13   0.870
    13   1    -0.457423      C  8   1.115   H 12   0.870
    14   1    -0.456267      C  9   1.106   H 15   0.881
    15   1    -0.456267      C  8   1.106   H 14   0.881
    16   1    -0.453859      C  1   1.111   H  5   0.875
    17   1    -0.451452      C  8   1.123   H 10   0.865
    18   1    -0.451452      C  9   1.123   H 11   0.865
    19   1    -0.446925      C  1   1.122   H  7   0.866
    20   1    -0.446925      C  1   1.122   H  6   0.866
    21   1    -0.263303      O  3   1.952   (other: 0.048)

 Localized orbitals saved to record      2100.2  (orbital set 2)


 **********************************************************************************************************************************
 DATASETS  * FILE   NREC   LENGTH (MB)   RECORD NAMES
              1      20      928.02       500      610      700      900      950      970     1000      129      960     1100   
                                          VAR    BASINP    GEOM    SYMINP    ZMAT    AOBASIS   BASIS     P2S    ABASIS      S 
                                         1400     1410     1200     1210     1080     1600     1650     1300     1700     1800   
                                           T        V       H0       H01     AOSYM     SMH    MOLCAS    ERIS     OPER     GRID   

              2       5        4.33       700     1000      520     1800     2100   
                                         GEOM     BASIS   MCVARS    GRID      RKS  

 PROGRAMS   *        TOTAL      IBBA        KS       INT
 CPU TIMES  *       180.94      0.06    154.76     25.98
 REAL TIME  *       221.10 SEC
 DISK USED  *         3.90 GB      
 **********************************************************************************************************************************
 Molecular orbitals read from record     2100.2  Type=RKS/LOCAL(IBO)  
 Occupation numbers read from record     2100.2  Type=RKS/LOCAL(IBO)  
 Orbital energies read from record       2100.2  Type=RKS/LOCAL(IBO)  
 Redundancy group numbers read from rec  2100.2  Type=RKS/LOCAL(IBO)  

 IBBA/TZVP energy=      0.000000000000

        KS-SCF  
   -227.32508306
 **********************************************************************************************************************************
 Molpro calculation terminated
