
 Primary working directories    : /local
 Secondary working directories  : /local
 Wavefunction directory         : /local/
 Main file repository           : /local/

 SHA1      : b4a5b34a9e711420743f49e6833241d17c61fb3c
 NAME      : 2099.9.b4a5b34
 ARCHNAME  : linux/x86_64_openmp
 FC        : /cm/shared/languages/GCC-6.1/bin/gfortran
 BLASLIB   : -lblas
 id        : simonbennie

 Nodes     nprocs
 node45-014    1

 Using customized tuning parameters: mindgm=1; mindgv=20; mindgc=4; mindgr=1; noblas=0; minvec=7
 default implementation of scratch files=df  

 memory,500,m
 geomtyp=xyz
 nosym
 noorient
 geometry={
 C         -1.53233        0.02247        0.00000
 C         -0.00192        0.01421        0.00000
 O          0.37239        1.40356        0.00000
 H          1.34248        1.44036        0.00000
 H         -1.92991       -0.99819        0.00000
 H         -1.90797        0.54382       -0.88653
 H         -1.90797        0.54382        0.88653
 C          0.54303       -0.66466       -1.26580
 C          0.54303       -0.66466        1.26580
 H          0.17836       -0.14752       -2.15943
 H          0.17836       -0.14752        2.15943
 H          0.23752       -1.71600       -1.32280
 H          0.23752       -1.71600        1.32280
 H          1.64084       -0.63767       -1.28032
 H          1.64084       -0.63767        1.28032
 }
 basis={ default,qzvp }
 {ks,MM06-HF,direct;wf,42,1,0}
 {ibba,bonds=1}

 Variables initialized (895), CPU time= 0.00 sec
 Commands  initialized (725), CPU time= 0.02 sec, 591 directives.
 Default parameters read. Elapsed time= 3.12 sec

 Checking input...
 Passed
1


                                         ***  PROGRAM SYSTEM MOLPRO  ***
                                       Copyright, TTI GmbH Stuttgart, 2015
                                    Version 2099.9 linked May 26 2017 16:03:21


 **********************************************************************************************************************************
 LABEL *                                                                                 
  64 bit serial version                                                                  DATE: 12-Jun-17          TIME: 17:53:19  
 **********************************************************************************************************************************

 SHA1:             b4a5b34a9e711420743f49e6833241d17c61fb3c
 **********************************************************************************************************************************
 SETTING GEOMTYP        =    XYZ

 Variable memory set to  500000000 words,  buffer space 

 ZSYMEL=NOSYM

 SETTING BASIS          =    QZVP


 Recomputing integrals since basis changed


 Using spherical harmonics

 Library entry C      S def2-QZVP            selected for orbital group  1
 Library entry C      P def2-QZVP            selected for orbital group  1
 Library entry C      D def2-QZVP            selected for orbital group  1
 Library entry C      F def2-QZVP            selected for orbital group  1
 Library entry C      G def2-QZVP            selected for orbital group  1
 Library entry O      S def2-QZVP            selected for orbital group  2
 Library entry O      P def2-QZVP            selected for orbital group  2
 Library entry O      D def2-QZVP            selected for orbital group  2
 Library entry O      F def2-QZVP            selected for orbital group  2
 Library entry O      G def2-QZVP            selected for orbital group  2
 Library entry H      S def2-QZVP            selected for orbital group  3
 Library entry H      P def2-QZVP            selected for orbital group  3
 Library entry H      D def2-QZVP            selected for orbital group  3
 Library entry H      F def2-QZVP            selected for orbital group  3


 PROGRAM * SEWARD (Integral evaluation for generally contracted gaussian basis sets)     Author: Roland Lindh, 1990

 Geometry written to block  1 of record 700


 Point group  C1  



 ATOMIC COORDINATES

 NR  ATOM    CHARGE       X              Y              Z

   1  C       6.00   -2.895684032    0.042462146    0.000000000
   2  C       6.00   -0.003628274    0.026853008    0.000000000
   3  O       8.00    0.703715112    2.652343999    0.000000000
   4  H       1.00    2.536919528    2.721885921    0.000000000
   5  H       1.00   -3.647001345   -1.886305720    0.000000000
   6  H       1.00   -3.605540754    1.027670861   -1.675298901
   7  H       1.00   -3.605540754    1.027670861    1.675298901
   8  C       6.00    1.026177977   -1.256025366   -2.392015328
   9  C       6.00    1.026177977   -1.256025366    2.392015328
  10  H       1.00    0.337051552   -0.278772398   -4.080731285
  11  H       1.00    0.337051552   -0.278772398    4.080731285
  12  H       1.00    0.448847749   -3.242770030   -2.499729718
  13  H       1.00    0.448847749   -3.242770030    2.499729718
  14  H       1.00    3.100738214   -1.205021658   -2.419454152
  15  H       1.00    3.100738214   -1.205021658    2.419454152

 Bond lengths in Bohr (Angstrom)

 1-2  2.892097881  1-5  2.069933136  1-6  2.069096224  1-7  2.069096224  2-3  2.719106031
     ( 1.530432290)     ( 1.095361444)     ( 1.094918569)     ( 1.094918569)     ( 1.438888946)

  2- 8  2.903104402   2- 9  2.903104402   3- 4  1.834522965   8-10  2.069222119   8-12  2.071730422
       ( 1.536256691)       ( 1.536256691)       ( 0.970787746)       ( 1.094985190)       ( 1.096312526)

  8-14  2.075368508   9-11  2.069222119   9-13  2.071730422   9-15  2.075368508
       ( 1.098237719)       ( 1.094985190)       ( 1.096312526)       ( 1.098237719)

 Bond angles

  1-2-3  104.76902697   1-2-8  110.92255387   1-2-9  110.92255387   2-1-5  110.97328220

  2- 1- 6  110.22090701   2- 1- 7  110.22090701   2- 3- 4  107.25071562   2- 8-10  110.21836376

  2- 8-12  111.57747468   2- 8-14  110.77023896   2- 9-11  110.21836376   2- 9-13  111.57747468

  2- 9-15  110.77023896   3- 2- 8  109.53648747   3- 2- 9  109.53648747   5- 1- 6  108.61190457

  5- 1- 7  108.61190457   6- 1- 7  108.12870271   8- 2- 9  110.96453384  10- 8-12  108.52192632

 10- 8-14  108.08997829  11- 9-13  108.52192632  11- 9-15  108.08997829  12- 8-14  107.54424578

 13- 9-15  107.54424578

 NUCLEAR CHARGE:                   42
 NUMBER OF PRIMITIVE AOS:         840
 NUMBER OF SYMMETRY AOS:          715
 NUMBER OF CONTRACTIONS:          585   ( 585A   )
 NUMBER OF CORE ORBITALS:           5   (   5A   )
 NUMBER OF VALENCE ORBITALS:       30   (  30A   )


 NUCLEAR REPULSION ENERGY  198.77359127


 Eigenvalues of metric

         1 0.447E-04 0.459E-04 0.470E-04 0.743E-04 0.823E-04 0.917E-04 0.943E-04 0.107E-03


 Contracted 2-electron integrals neglected if value below      1.0D-12
 AO integral compression algorithm  1   Integral accuracy      1.0D-12

     40752.906 MB (compressed) written to integral file ( 33.4%)


 NUMBER OF SORTED TWO-ELECTRON INTEGRALS:14689922715.     BUFFER LENGTH:  32768
 NUMBER OF SEGMENTS: 184  SEGMENT LENGTH:   79999773      RECORD LENGTH: 262144

 Memory used in sort:      80.29 MW

 SORT1 READ 15248138275. AND WROTE 10587813328. INTEGRALS IN  60679 RECORDS. CPU TIME:   183.93 SEC, REAL TIME:  4222.26 SEC
 SORT2 READ 10587813328. AND WROTE 14689922715. INTEGRALS IN 155460 RECORDS. CPU TIME:   318.11 SEC, REAL TIME:  3935.17 SEC

 FILE SIZES:   FILE 1: 40795.6 MBYTE,  FILE 4:127253.1 MBYTE,   TOTAL: 168048.8 MBYTE

 OPERATOR DM      FOR CENTER  0  COORDINATES:    0.000000    0.000000    0.000000


 **********************************************************************************************************************************
 DATASETS  * FILE   NREC   LENGTH (MB)   RECORD NAMES
              1      19    37754.71       500      610      700      900      950      970     1000      129      960     1100   
                                          VAR    BASINP    GEOM    SYMINP    ZMAT    AOBASIS   BASIS     P2S    ABASIS      S 
                                         1400     1410     1200     1210     1080     1600     1650     1300     1700   
                                           T        V       H0       H01     AOSYM     SMH    MOLCAS    ERIS     OPER   

 PROGRAMS   *        TOTAL       INT
 CPU TIMES  *      1143.58   1143.43
 REAL TIME  *      8939.36 SEC
 DISK USED  *       168.05 GB      
 **********************************************************************************************************************************

 Density functional group MM06-HF=M06HFX+M06HFC
 Functional: M06HFX(Automatically generated (new) M06HFX)                      Gradient terms: 2
 Functional: M06HFC(Automatically generated (new) M06HFC)                      Gradient terms: 2
 Use grid at  1800.2


 Exact exchange will be calculated, factor:  1.0000

 Functional: M06HFX                    Factor:  1.0000
 Functional: M06HFC                    Factor:  1.0000

 Generated new metagrid on record  1800.2 with target accuracy 1.0D-06 and 58228 points in CPU time    1.6
 Computed new grid on record 1800.1 in CPU time    1.8
  914914 words reserved for DFT integration

 PROGRAM * RKS-SCF (Restricted closed shell Kohn-Sham)     Authors: W. Meyer, H.-J. Werner, P.J. Knowles, 1993

 NUMBER OF ELECTRONS:      21+   21-    SPACE SYMMETRY=1    SPIN SYMMETRY: Singlet 
 CONVERGENCE THRESHOLDS:    1.00E-05 (Density)    1.00E-06 (Energy)
 MAX. NUMBER OF ITERATIONS:       60
 INTERPOLATION TYPE:            DIIS
 INTERPOLATION STEPS:              2 (START)      1 (STEP)
 LEVEL SHIFTS:                  0.00 (CLOSED)  0.00 (OPEN) 



 Use fine grid record 1800.2 for energy threshold  1.0D-06
 Orbital guess generated from atomic densities. Full valence occupancy:   21

 Molecular orbital dump at record        2100.2

 Initial occupancy:  21

 ITERATION    DDIFF          GRAD             ENERGY        2-EL.EN.            DIPOLE MOMENTS         DIIS   ORB.
    1      0.000D+00      0.000D+00      -233.62296966    562.249436    0.72440   -0.87597    0.00000    0    start
    2      0.000D+00      0.376D-02      -233.70844704    551.948647    0.19610   -0.38873    0.00000    1    diag
    3      0.664D-02      0.229D-02      -233.74658276    557.356251    0.37856   -0.61325   -0.00000    2    diag
    4      0.159D-02      0.698D-03      -233.74984388    556.560457    0.34309   -0.54021   -0.00000    3    diag
    5      0.708D-03      0.294D-03      -233.75045268    556.502983    0.33002   -0.57776   -0.00000    4    diag
    6      0.419D-03      0.101D-03      -233.75053091    556.575595    0.32542   -0.56391    0.00000    5    diag
    7      0.697D-04      0.249D-04      -233.75053564    556.549685    0.32422   -0.56822    0.00000    6    diag
    8      0.257D-04      0.737D-05      -233.75053606    556.565624    0.32388   -0.56820    0.00000    7    diag
    9      0.585D-05      0.286D-05      -233.75053611    556.557675    0.32355   -0.56808    0.00000    0    orth

 Final occupancy:  21

 !RKS STATE 1.1 Energy               -233.750536107477
 Nuclear energy                       198.77359127
 One-electron energy                 -709.23805456
 Two-electron energy                  278.27883756
 SCF exchange energy                  -32.45289800     Factor= 1.0000
 Density functional                    -1.56491038     M06HFX=-0.01754549 M06HFC=-1.54736489
 Virial quotient                       -1.00503188
 !RKS STATE 1.1 Dipole moment           0.32354820    -0.56808485     0.00000000
 Dipole moment /Debye                   0.82232364    -1.44383309     0.00000000

 Orbital energies:

         1.1          2.1          3.1          4.1          5.1          6.1          7.1          8.1          9.1         10.1
    -20.190166   -11.022207   -10.955629   -10.955612   -10.950373    -1.258384    -1.001758    -0.896014    -0.895024    -0.753169

        11.1         12.1         13.1         14.1         15.1         16.1         17.1         18.1         19.1         20.1
     -0.662786    -0.622317    -0.620958    -0.576767    -0.558414    -0.526812    -0.519170    -0.512400    -0.505034    -0.458464

        21.1         22.1         23.1
     -0.433940     0.043131     0.074195

 HOMO     21.1    -0.433940 =     -11.8081eV
 LUMO     22.1     0.043131 =       1.1736eV
 LUMO-HOMO         0.477071 =      12.9818eV


 **********************************************************************************************************************************
 DATASETS  * FILE   NREC   LENGTH (MB)   RECORD NAMES
              1      20    37756.57       500      610      700      900      950      970     1000      129      960     1100   
                                          VAR    BASINP    GEOM    SYMINP    ZMAT    AOBASIS   BASIS     P2S    ABASIS      S 
                                         1400     1410     1200     1210     1080     1600     1650     1300     1700     1800   
                                           T        V       H0       H01     AOSYM     SMH    MOLCAS    ERIS     OPER     GRID   

              2       5        9.95       700     1000      520     1800     2100   
                                         GEOM     BASIS   MCVARS    GRID      RKS  

 PROGRAMS   *        TOTAL        KS       INT
 CPU TIMES  *      3979.09   2835.51   1143.43
 REAL TIME  *     16505.63 SEC
 DISK USED  *       168.05 GB      
 **********************************************************************************************************************************


 PROGRAM * Intrinsic Basis Bonding Analysis (IBBA)          Author: G. Knizia

 Molecular orbitals read from record     2100.2  Type=RKS/CANONICAL (state 1.1)
 Fock matrix read from record            2100.2  Type=RKS/TOTAL (state 1.1)
 Orbital energies read from record       2100.2  Type=RKS/CANONICAL (state 1.1)
 Density matrix read from record         2100.2  Type=RKS/CHARGE (state 1.1)

 Number of core orbitals:           5 (   5 )
 Number of closed-shell orbitals:  16 (  16 )

 Basis set MINAO-AUTO-PP generated.      Number of basis functions:   35 

 Polarized AO type:                A = (O Ot + (1-O)(1-Ot)) P12
 Orthogonalization method:         Symmetric (Loewdin)
 Localization functional:          L = sum[A,i] <i|n_A|i>^4 -> max

 Localization group 1:  21 orbitals, occupancy  2.000
 Iterative localization: IB/PM,    7 iter; Final gradient 0.52E-08

 Bond order analysis:       [THRPRINT= 0.020]

   CEN ATOM   CEN ATOM     WIBERG.BO      RENORM.BO
     1   C  -   2   C       0.994649       0.993280
     1   C  -   5   H       0.965016       0.987973
     1   C  -   7   H       0.957708       0.983692
     1   C  -   6   H       0.957708       0.983692

     2   C  -   8   C       0.995010       0.978765
     2   C  -   9   C       0.995010       0.978765
     2   C  -   1   C       0.994649       0.993280
     2   C  -   3   O       0.934643       0.956083

     3   O  -   2   C       0.934643       0.956083
     3   O  -   4   H       0.865098       0.978986
     3   O  -   9   C       0.023378       0.012128
     3   O  -   8   C       0.023378       0.012128

     4   H  -   3   O       0.865098       0.978986

     5   H  -   1   C       0.965016       0.987973

     6   H  -   1   C       0.957708       0.983692

     7   H  -   1   C       0.957708       0.983692

     8   C  -   2   C       0.995010       0.978765
     8   C  -  14   H       0.963658       0.983997
     8   C  -  12   H       0.960886       0.985851
     8   C  -  10   H       0.958499       0.983670
     8   C  -   3   O       0.023378       0.012128

     9   C  -   2   C       0.995010       0.978765
     9   C  -  15   H       0.963658       0.983997
     9   C  -  13   H       0.960886       0.985851
     9   C  -  11   H       0.958499       0.983670
     9   C  -   3   O       0.023378       0.012128

    10   H  -   8   C       0.958499       0.983670

    11   H  -   9   C       0.958499       0.983670

    12   H  -   8   C       0.960886       0.985851

    13   H  -   9   C       0.960886       0.985851

    14   H  -   8   C       0.963658       0.983997

    15   H  -   9   C       0.963658       0.983997


 Valency analysis:

   CEN ATOM   TOT.VALENCE
     1   C       3.929300
     2   C       3.930031
     3   O       1.902947
     4   H       0.882157
     5   H       0.982995
     6   H       0.977578
     7   H       0.977578
     8   C       3.933154
     9   C       3.933154
    10   H       0.977810
    11   H       0.977810
    12   H       0.980335
    13   H       0.980335
    14   H       0.983654
    15   H       0.983654

 Total charge composition:

   CEN ATOM         s          p       ELECTRONS ->P.CHARGE
     1   C       3.02004    3.38864      6.40868   -0.40868
     2   C       2.92951    2.84871      5.77823    0.22177
     3   O       3.60961    4.96584      8.57545   -0.57545
     4   H       0.65672                 0.65672    0.34328
     5   H       0.86960                 0.86960    0.13040
     6   H       0.85026                 0.85026    0.14974
     7   H       0.85026                 0.85026    0.14974
     8   C       3.02405    3.39840      6.42245   -0.42245
     9   C       3.02405    3.39840      6.42245   -0.42245
    10   H       0.85104                 0.85104    0.14896
    11   H       0.85104                 0.85104    0.14896
    12   H       0.85977                 0.85977    0.14023
    13   H       0.85977                 0.85977    0.14023
    14   H       0.87215                 0.87215    0.12785
    15   H       0.87215                 0.87215    0.12785

 Total charge composition, AO contributions:

   CEN ATOM SHL      SPHERICAL COMPONENTS
     1   C  1s       1.99047
     1   C  2s       1.02957
     1   C  2p       1.03140    1.16711    1.19013

     2   C  1s       1.99217
     2   C  2s       0.93734
     2   C  2p       1.02641    0.79622    1.02609

     3   O  1s       1.99695
     3   O  2s       1.61266
     3   O  2p       1.49167    1.50951    1.96466

     4   H  1s       0.65672

     5   H  1s       0.86960

     6   H  1s       0.85026

     7   H  1s       0.85026

     8   C  1s       1.99058
     8   C  2s       1.03347
     8   C  2p       1.14956    1.15225    1.09659

     9   C  1s       1.99058
     9   C  2s       1.03347
     9   C  2p       1.14956    1.15225    1.09659

    10   H  1s       0.85104

    11   H  1s       0.85104

    12   H  1s       0.85977

    13   H  1s       0.85977

    14   H  1s       0.87215

    15   H  1s       0.87215

 Summary of localized orbital composition:   [THRPRINT= 0.020]

   ORB  GRP  ORB.ENERGY      CENTERS/CHARGES
     1   1   -20.027745      O  3   2.000
     2   1   -10.924046      C  2   2.000
     3   1   -10.834283      C  8   2.000
     4   1   -10.834283      C  9   2.000
     5   1   -10.828021      C  1   2.000
     6   1    -0.969807      O  3   1.345   H  4   0.647
     7   1    -0.929455      O  3   1.279   C  2   0.706
     8   1    -0.762986      O  3   1.984
     9   1    -0.741398      C  8   0.996   C  2   0.990
    10   1    -0.741398      C  9   0.996   C  2   0.990
    11   1    -0.738549      C  2   1.003   C  1   0.975   (other: 0.022)
    12   1    -0.675022      C  9   1.136   H 13   0.852
    13   1    -0.675022      C  8   1.136   H 12   0.852
    14   1    -0.671816      C  8   1.124   H 14   0.865
    15   1    -0.671816      C  9   1.124   H 15   0.865
    16   1    -0.671662      C  9   1.147   H 11   0.843
    17   1    -0.671662      C  8   1.147   H 10   0.843
    18   1    -0.668791      C  1   1.148   H  6   0.842
    19   1    -0.668791      C  1   1.148   H  7   0.842
    20   1    -0.665967      C  1   1.125   H  5   0.863
    21   1    -0.502880      O  3   1.965   (other: 0.035)

 Localized orbitals saved to record      2100.2  (orbital set 2)


 **********************************************************************************************************************************
 DATASETS  * FILE   NREC   LENGTH (MB)   RECORD NAMES
              1      20    37756.57       500      610      700      900      950      970     1000      129      960     1100   
                                          VAR    BASINP    GEOM    SYMINP    ZMAT    AOBASIS   BASIS     P2S    ABASIS      S 
                                         1400     1410     1200     1210     1080     1600     1650     1300     1700     1800   
                                           T        V       H0       H01     AOSYM     SMH    MOLCAS    ERIS     OPER     GRID   

              2       5       12.70       700     1000      520     1800     2100   
                                         GEOM     BASIS   MCVARS    GRID      RKS  

 PROGRAMS   *        TOTAL      IBBA        KS       INT
 CPU TIMES  *      3979.54      0.45   2835.51   1143.43
 REAL TIME  *     16506.50 SEC
 DISK USED  *       168.05 GB      
 **********************************************************************************************************************************
 Molecular orbitals read from record     2100.2  Type=RKS/LOCAL(IBO)  
 Occupation numbers read from record     2100.2  Type=RKS/LOCAL(IBO)  
 Orbital energies read from record       2100.2  Type=RKS/LOCAL(IBO)  
 Redundancy group numbers read from rec  2100.2  Type=RKS/LOCAL(IBO)  

 IBBA/QZVP energy=      0.000000000000

        KS-SCF  
   -233.75053611
 **********************************************************************************************************************************
 Molpro calculation terminated
