
 Primary working directories    : /tmp/sb13343
 Secondary working directories  : /tmp/sb13343
 Wavefunction directory         : /panfs/panasas01/chem/sb13343/wfu/
 Main file repository           : /tmp/sb13343/

 SHA1      : b4a5b34a9e711420743f49e6833241d17c61fb3c
 NAME      : 2099.9.b4a5b34
 ARCHNAME  : linux/x86_64_openmp
 FC        : /cm/shared/languages/GCC-6.1/bin/gfortran
 BLASLIB   : -lblas
 id        : simonbennie

 Nodes     nprocs
 node32-007    1

 Using customized tuning parameters: mindgm=1; mindgv=20; mindgc=4; mindgr=1; noblas=0; minvec=7
 default implementation of scratch files=df  

 memory,500,m
 geomtyp=xyz
 nosym
 noorient
 geometry={
 C          0.00000        0.00000        0.00000
 C          0.00000        0.00000        1.53307
 O          1.40344        0.00000        1.86307
 C          1.76314        0.00000        3.22887
 H         -1.02289        0.00000       -0.39176
 H          0.51995       -0.88625       -0.37815
 H          0.51995        0.88625       -0.37815
 H          2.85677        0.00000        3.25413
 H          1.40708       -0.89217        3.76475
 H          1.40708        0.89217        3.76475
 C         -0.69252       -1.26694        2.06222
 C         -0.69252        1.26694        2.06222
 H         -0.15366       -2.16088        1.72982
 H         -0.15366        2.16088        1.72982
 H         -1.72011       -1.32515        1.68649
 H         -1.72011        1.32515        1.68649
 H         -0.74365       -1.28188        3.15638
 H         -0.74365        1.28188        3.15638
 }
 basis={ default,svp }
 {ks,M08-HX,direct;wf,50,1,0}
 {ibba,bonds=1}

 Variables initialized (895), CPU time= 0.01 sec
 Commands  initialized (725), CPU time= 0.01 sec, 591 directives.
 Default parameters read. Elapsed time= 0.08 sec

 Checking input...
 Passed
1


                                         ***  PROGRAM SYSTEM MOLPRO  ***
                                       Copyright, TTI GmbH Stuttgart, 2015
                                    Version 2099.9 linked May 26 2017 16:03:21


 **********************************************************************************************************************************
 LABEL *                                                                                 
  64 bit serial version                                                                  DATE: 09-Jun-17          TIME: 02:04:12  
 **********************************************************************************************************************************

 SHA1:             b4a5b34a9e711420743f49e6833241d17c61fb3c
 **********************************************************************************************************************************
 SETTING GEOMTYP        =    XYZ

 Variable memory set to  500000000 words,  buffer space 

 ZSYMEL=NOSYM

 SETTING BASIS          =    SVP


 Recomputing integrals since basis changed


 Using spherical harmonics

 Library entry C      S def2-SVP             selected for orbital group  1
 Library entry C      P def2-SVP             selected for orbital group  1
 Library entry C      D def2-SVP             selected for orbital group  1
 Library entry O      S def2-SVP             selected for orbital group  2
 Library entry O      P def2-SVP             selected for orbital group  2
 Library entry O      D def2-SVP             selected for orbital group  2
 Library entry H      S def2-SVP             selected for orbital group  4
 Library entry H      P def2-SVP             selected for orbital group  4


 PROGRAM * SEWARD (Integral evaluation for generally contracted gaussian basis sets)     Author: Roland Lindh, 1990

 Geometry written to block  1 of record 700


 Point group  C1  



 ATOMIC COORDINATES

 NR  ATOM    CHARGE       X              Y              Z

   1  C       6.00    0.000000000    0.000000000    0.000000000
   2  C       6.00    0.000000000    0.000000000    2.897082430
   3  O       8.00    2.652117232    0.000000000    3.520692051
   4  C       6.00    3.331851719    0.000000000    6.101679992
   5  H       1.00   -1.932981956    0.000000000   -0.740319107
   6  H       1.00    0.982563098   -1.674769778   -0.714599934
   7  H       1.00    0.982563098    1.674769778   -0.714599934
   8  H       1.00    5.398512901    0.000000000    6.149414474
   9  H       1.00    2.658995835   -1.685956957    7.114346427
  10  H       1.00    2.658995835    1.685956957    7.114346427
  11  C       6.00   -1.308673136   -2.394169616    3.897031009
  12  C       6.00   -1.308673136    2.394169616    3.897031009
  13  H       1.00   -0.290375316   -4.083471388    3.268886045
  14  H       1.00   -0.290375316    4.083471388    3.268886045
  15  H       1.00   -3.250536804   -2.504170574    3.187004212
  16  H       1.00   -3.250536804    2.504170574    3.187004212
  17  H       1.00   -1.405294833   -2.422402125    5.964693745
  18  H       1.00   -1.405294833    2.422402125    5.964693745

 Bond lengths in Bohr (Angstrom)

 1-2  2.897082430  1-5  2.069901355  1-6  2.069042560  1-7  2.069042560  2-3  2.724447609
     ( 1.533070000)     ( 1.095344626)     ( 1.094890171)     ( 1.094890171)     ( 1.441715587)

  2-11  2.905954351   2-12  2.905954351   3- 4  2.668995640   4- 8  2.067212379   4- 9  2.078624355
       ( 1.537764818)       ( 1.537764818)       ( 1.412371669)       ( 1.093921681)       ( 1.099960639)

  4-10  2.078624355  11-13  2.070081404  11-15  2.070524757  11-17  2.070111596  12-14  2.070081404
       ( 1.099960639)       ( 1.095439904)       ( 1.095674516)       ( 1.095455880)       ( 1.095439904)

 12-16  2.070524757  12-18  2.070111596
       ( 1.095674516)       ( 1.095455880)

 Bond angles

  1- 2- 3  103.23196371   1- 2-11  110.12706952   1- 2-12  110.12706952   2- 1- 5  110.95650426

  2- 1- 6  110.20481748   2- 1- 7  110.20481748   2- 3- 4  117.98647004   2-11-13  110.26679927

  2-11-15  110.37287188   2-11-17  112.08316935   2-12-14  110.26679927   2-12-16  110.37287188

  2-12-18  112.08316935   3- 2-11  111.07703285   3- 2-12  111.07703285   3- 4- 8  106.07765410

  3- 4- 9  112.87219182   3- 4-10  112.87219182   5- 1- 6  108.65976572   5- 1- 7  108.65976572

  6- 1- 7  108.08288210   8- 4- 9  108.20190897   8- 4-10  108.20190897   9- 4-10  108.40564999

 11- 2-12  110.95103964  13-11-15  108.29648994  13-11-17  108.35544687  14-12-16  108.29648994

 14-12-18  108.35544687  15-11-17  107.33851825  16-12-18  107.33851825

 NUCLEAR CHARGE:                   50
 NUMBER OF PRIMITIVE AOS:         234
 NUMBER OF SYMMETRY AOS:          228
 NUMBER OF CONTRACTIONS:          144   ( 144A   )
 NUMBER OF CORE ORBITALS:           6   (   6A   )
 NUMBER OF VALENCE ORBITALS:       36   (  36A   )


 NUCLEAR REPULSION ENERGY  270.15500869


 Eigenvalues of metric

         1 0.176E-02 0.508E-02 0.513E-02 0.102E-01 0.124E-01 0.215E-01 0.221E-01 0.252E-01


 Contracted 2-electron integrals neglected if value below      1.0D-11
 AO integral compression algorithm  1   Integral accuracy      1.0D-11

     186.384 MB (compressed) written to integral file ( 41.3%)


 NUMBER OF SORTED TWO-ELECTRON INTEGRALS:   54502020.     BUFFER LENGTH:  32768
 NUMBER OF SEGMENTS:   4  SEGMENT LENGTH:   15999503      RECORD LENGTH: 524288

 Memory used in sort:      16.56 MW

 SORT1 READ    56333432. AND WROTE    45703433. INTEGRALS IN    132 RECORDS. CPU TIME:     0.80 SEC, REAL TIME:     1.52 SEC
 SORT2 READ    45703433. AND WROTE    54502020. INTEGRALS IN    711 RECORDS. CPU TIME:     1.12 SEC, REAL TIME:     3.91 SEC

 FILE SIZES:   FILE 1:   217.4 MBYTE,  FILE 4:   553.7 MBYTE,   TOTAL:    771.1 MBYTE

 OPERATOR DM      FOR CENTER  0  COORDINATES:    0.000000    0.000000    0.000000


 **********************************************************************************************************************************
 DATASETS  * FILE   NREC   LENGTH (MB)   RECORD NAMES
              1      19      194.45       500      610      700      900      950      970     1000      129      960     1100   
                                          VAR    BASINP    GEOM    SYMINP    ZMAT    AOBASIS   BASIS     P2S    ABASIS      S 
                                         1400     1410     1200     1210     1080     1600     1650     1300     1700   
                                           T        V       H0       H01     AOSYM     SMH    MOLCAS    ERIS     OPER   

 PROGRAMS   *        TOTAL       INT
 CPU TIMES  *         7.67      7.53
 REAL TIME  *        14.84 SEC
 DISK USED  *       771.70 MB      
 **********************************************************************************************************************************

 Density functional group M08-HX=XC-M08-HX
 Functional: XC-M08-HX(via MFM 1.6)                                            Gradient terms: 1
 Use grid at  1800.2


 Exact exchange will be calculated, factor:  0.5223

 Functional: XC-M08-HX                 Factor:  1.0000

 Generated new metagrid on record  1800.2 with target accuracy 1.0D-06 and 66012 points in CPU time    2.0
 Computed new grid on record 1800.1 in CPU time    2.3
  118710 words reserved for DFT integration

 PROGRAM * RKS-SCF (Restricted closed shell Kohn-Sham)     Authors: W. Meyer, H.-J. Werner, P.J. Knowles, 1993

 NUMBER OF ELECTRONS:      25+   25-    SPACE SYMMETRY=1    SPIN SYMMETRY: Singlet 
 CONVERGENCE THRESHOLDS:    1.00E-05 (Density)    1.00E-06 (Energy)
 MAX. NUMBER OF ITERATIONS:       60
 INTERPOLATION TYPE:            DIIS
 INTERPOLATION STEPS:              2 (START)      1 (STEP)
 LEVEL SHIFTS:                  0.00 (CLOSED)  0.00 (OPEN) 



 Use fine grid record 1800.2 for energy threshold  1.0D-06
 Orbital guess generated from atomic densities. Full valence occupancy:   25

 Molecular orbital dump at record        2100.2

 Initial occupancy:  25

 ITERATION    DDIFF          GRAD             ENERGY        2-EL.EN.            DIPOLE MOMENTS         DIIS   ORB.
    1      0.000D+00      0.000D+00      -272.58957638    769.934538   -0.66696    0.00000    0.57806    0    start
    2      0.000D+00      0.547D-02      -272.62409321    752.599451   -0.18013   -0.00000    0.08132    1    diag
    3      0.986D-02      0.470D-02      -272.68745181    761.223766   -0.39379   -0.00000    0.35588    2    diag
    4      0.487D-02      0.522D-03      -272.68790090    760.739449   -0.35474   -0.00000    0.31867    3    diag
    5      0.580D-03      0.309D-03      -272.68812632    760.826318   -0.38316   -0.00000    0.33276    4    diag
    6      0.283D-03      0.492D-04      -272.68813197    760.858812   -0.37591   -0.00000    0.33143    5    diag
    7      0.606D-04      0.167D-04      -272.68813274    760.845808   -0.37648   -0.00000    0.33147    6    diag
    8      0.150D-04      0.257D-05      -272.68813276    760.847116   -0.37672   -0.00000    0.33158    7    diag
    9      0.308D-05      0.384D-06      -272.68813276    760.846778   -0.37659   -0.00000    0.33150    0    orth

 Final occupancy:  25

 !RKS STATE 1.1 Energy               -272.688132755946
 Nuclear energy                       270.15500869
 One-electron energy                 -903.23332082
 Two-electron energy                  380.42338889
 SCF exchange energy                  -38.31183269     Factor= 0.5223
 Density functional                   -20.03320952     XC-M08-HX=-20.03320952
 Virial quotient                       -1.01263235
 !RKS STATE 1.1 Dipole moment          -0.37658850    -0.00000000     0.33149594
 Dipole moment /Debye                  -0.95712981    -0.00000000     0.84252345

 Orbital energies:

         1.1          2.1          3.1          4.1          5.1          6.1          7.1          8.1          9.1         10.1
    -19.613087   -10.599698   -10.578992   -10.533221   -10.533204   -10.527545    -1.124447    -0.892316    -0.782893    -0.777155

        11.1         12.1         13.1         14.1         15.1         16.1         17.1         18.1         19.1         20.1
     -0.752282    -0.624025    -0.554865    -0.534675    -0.534168    -0.498295    -0.480419    -0.462221    -0.445524    -0.436580

        21.1         22.1         23.1         24.1         25.1         26.1         27.1
     -0.428123    -0.404946    -0.404934    -0.362197    -0.320318     0.064552     0.099544

 HOMO     25.1    -0.320318 =      -8.7163eV
 LUMO     26.1     0.064552 =       1.7566eV
 LUMO-HOMO         0.384870 =      10.4728eV


 **********************************************************************************************************************************
 DATASETS  * FILE   NREC   LENGTH (MB)   RECORD NAMES
              1      20      196.57       500      610      700      900      950      970     1000      129      960     1100   
                                          VAR    BASINP    GEOM    SYMINP    ZMAT    AOBASIS   BASIS     P2S    ABASIS      S 
                                         1400     1410     1200     1210     1080     1600     1650     1300     1700     1800   
                                           T        V       H0       H01     AOSYM     SMH    MOLCAS    ERIS     OPER     GRID   

              2       5        3.48       700     1000      520     1800     2100   
                                         GEOM     BASIS   MCVARS    GRID      RKS  

 PROGRAMS   *        TOTAL        KS       INT
 CPU TIMES  *        61.85     54.18      7.53
 REAL TIME  *        69.72 SEC
 DISK USED  *       771.70 MB      
 **********************************************************************************************************************************


 PROGRAM * Intrinsic Basis Bonding Analysis (IBBA)          Author: G. Knizia

 Molecular orbitals read from record     2100.2  Type=RKS/CANONICAL (state 1.1)
 Fock matrix read from record            2100.2  Type=RKS/TOTAL (state 1.1)
 Orbital energies read from record       2100.2  Type=RKS/CANONICAL (state 1.1)
 Density matrix read from record         2100.2  Type=RKS/CHARGE (state 1.1)

 Number of core orbitals:           6 (   6 )
 Number of closed-shell orbitals:  19 (  19 )

 Basis set MINAO-AUTO-PP generated.      Number of basis functions:   42 

 Polarized AO type:                A = (O Ot + (1-O)(1-Ot)) P12
 Orthogonalization method:         Symmetric (Loewdin)
 Localization functional:          L = sum[A,i] <i|n_A|i>^4 -> max

 Localization group 1:  25 orbitals, occupancy  2.000
 Iterative localization: IB/PM,    7 iter; Final gradient 0.68E-08

 Bond order analysis:       [THRPRINT= 0.020]

   CEN ATOM   CEN ATOM     WIBERG.BO      RENORM.BO
     1   C  -   2   C       0.995902       0.995091
     1   C  -   5   H       0.965916       0.986847
     1   C  -   7   H       0.961074       0.983139
     1   C  -   6   H       0.961074       0.983139

     2   C  -   1   C       0.995902       0.995091
     2   C  -  12   C       0.991962       0.973938
     2   C  -  11   C       0.991962       0.973938
     2   C  -   3   O       0.927972       0.941750

     3   O  -   4   C       0.989093       1.014132
     3   O  -   2   C       0.927972       0.941750
     3   O  -   9   H       0.031016       0.018286
     3   O  -  10   H       0.031016       0.018286
     3   O  -  12   C       0.024007       0.012508
     3   O  -  11   C       0.024007       0.012508

     4   C  -   3   O       0.989093       1.014132
     4   C  -   8   H       0.957711       0.978821
     4   C  -   9   H       0.952456       0.942412
     4   C  -  10   H       0.952456       0.942412

     5   H  -   1   C       0.965916       0.986847

     6   H  -   1   C       0.961074       0.983139

     7   H  -   1   C       0.961074       0.983139

     8   H  -   4   C       0.957711       0.978821

     9   H  -   4   C       0.952456       0.942412
     9   H  -   3   O       0.031016       0.018286

    10   H  -   4   C       0.952456       0.942412
    10   H  -   3   O       0.031016       0.018286

    11   C  -   2   C       0.991962       0.973938
    11   C  -  17   H       0.964164       0.982992
    11   C  -  15   H       0.962409       0.987920
    11   C  -  13   H       0.961325       0.983196
    11   C  -   3   O       0.024007       0.012508

    12   C  -   2   C       0.991962       0.973938
    12   C  -  18   H       0.964164       0.982992
    12   C  -  16   H       0.962409       0.987920
    12   C  -  14   H       0.961325       0.983196
    12   C  -   3   O       0.024007       0.012508

    13   H  -  11   C       0.961325       0.983196

    14   H  -  12   C       0.961325       0.983196

    15   H  -  11   C       0.962409       0.987920

    16   H  -  12   C       0.962409       0.987920

    17   H  -  11   C       0.964164       0.982992

    18   H  -  12   C       0.964164       0.982992


 Valency analysis:

   CEN ATOM   TOT.VALENCE
     1   C       3.939000
     2   C       3.934942
     3   O       2.089564
     4   C       3.872801
     5   H       0.984129
     6   H       0.980945
     7   H       0.980945
     8   H       0.977909
     9   H       0.987576
    10   H       0.987576
    11   C       3.939199
    12   C       3.939199
    13   H       0.981123
    14   H       0.981123
    15   H       0.982013
    16   H       0.982013
    17   H       0.984025
    18   H       0.984025

 Total charge composition:

   CEN ATOM         s          p       ELECTRONS ->P.CHARGE
     1   C       3.02177    3.37420      6.39597   -0.39597
     2   C       2.92247    2.82724      5.74971    0.25029
     3   O       3.58724    4.81426      8.40150   -0.40150
     4   C       3.01245    3.17769      6.19014   -0.19014
     5   H       0.87402                 0.87402    0.12598
     6   H       0.86196                 0.86196    0.13804
     7   H       0.86196                 0.86196    0.13804
     8   H       0.85137                 0.85137    0.14863
     9   H       0.88854                 0.88854    0.11146
    10   H       0.88854                 0.88854    0.11146
    11   C       3.02160    3.39445      6.41605   -0.41605
    12   C       3.02160    3.39445      6.41605   -0.41605
    13   H       0.86261                 0.86261    0.13739
    14   H       0.86261                 0.86261    0.13739
    15   H       0.86588                 0.86588    0.13412
    16   H       0.86588                 0.86588    0.13412
    17   H       0.87361                 0.87361    0.12639
    18   H       0.87361                 0.87361    0.12639

 Total charge composition, AO contributions:

   CEN ATOM SHL      SPHERICAL COMPONENTS
     1   C  1s       1.99078
     1   C  2s       1.03100
     1   C  2p       1.15802    1.17218    1.04400

     2   C  1s       1.99248
     2   C  2s       0.92999
     2   C  2p       0.79629    1.01404    1.01690

     3   O  1s       1.99721
     3   O  2s       1.59003
     3   O  2p       1.44184    1.91897    1.45345

     4   C  1s       1.99142
     4   C  2s       1.02102
     4   C  2p       1.15905    1.16506    0.85358

     5   H  1s       0.87402

     6   H  1s       0.86196

     7   H  1s       0.86196

     8   H  1s       0.85137

     9   H  1s       0.88854

    10   H  1s       0.88854

    11   C  1s       1.99083
    11   C  2s       1.03077
    11   C  2p       1.14454    1.09991    1.15001

    12   C  1s       1.99083
    12   C  2s       1.03077
    12   C  2p       1.14454    1.09991    1.15001

    13   H  1s       0.86261

    14   H  1s       0.86261

    15   H  1s       0.86588

    16   H  1s       0.86588

    17   H  1s       0.87361

    18   H  1s       0.87361

 Summary of localized orbital composition:   [THRPRINT= 0.020]

   ORB  GRP  ORB.ENERGY      CENTERS/CHARGES
     1   1   -19.465889      O  3   2.000
     2   1   -10.505885      C  2   2.000
     3   1   -10.465903      C  4   2.000
     4   1   -10.415405      C 12   2.000
     5   1   -10.415405      C 11   2.000
     6   1   -10.409015      C  1   2.000
     7   1    -0.849341      O  3   1.243   C  4   0.750
     8   1    -0.821157      O  3   1.270   C  2   0.707   (other: 0.023)
     9   1    -0.652134      C 11   1.009   C  2   0.975
    10   1    -0.652134      C 12   1.009   C  2   0.975
    11   1    -0.649908      C  1   0.990   C  2   0.989   (other: 0.021)
    12   1    -0.624416      O  3   1.964   (other: 0.036)
    13   1    -0.590909      C  4   1.128   H 10   0.870
    14   1    -0.590909      C  4   1.128   H  9   0.870
    15   1    -0.586812      C  4   1.148   H  8   0.844
    16   1    -0.574414      C 11   1.127   H 15   0.858
    17   1    -0.574414      C 12   1.127   H 16   0.858
    18   1    -0.573095      C 11   1.124   H 17   0.866
    19   1    -0.573095      C 12   1.124   H 18   0.866
    20   1    -0.570856      C  1   1.121   H  5   0.867
    21   1    -0.568870      C 12   1.135   H 14   0.855
    22   1    -0.568870      C 11   1.135   H 13   0.855
    23   1    -0.563083      C  1   1.135   H  6   0.854
    24   1    -0.563083      C  1   1.135   H  7   0.854
    25   1    -0.381128      O  3   1.919   (other: 0.081)

 Localized orbitals saved to record      2100.2  (orbital set 2)


 **********************************************************************************************************************************
 DATASETS  * FILE   NREC   LENGTH (MB)   RECORD NAMES
              1      20      196.57       500      610      700      900      950      970     1000      129      960     1100   
                                          VAR    BASINP    GEOM    SYMINP    ZMAT    AOBASIS   BASIS     P2S    ABASIS      S 
                                         1400     1410     1200     1210     1080     1600     1650     1300     1700     1800   
                                           T        V       H0       H01     AOSYM     SMH    MOLCAS    ERIS     OPER     GRID   

              2       5        3.65       700     1000      520     1800     2100   
                                         GEOM     BASIS   MCVARS    GRID      RKS  

 PROGRAMS   *        TOTAL      IBBA        KS       INT
 CPU TIMES  *        61.91      0.06     54.18      7.53
 REAL TIME  *        70.18 SEC
 DISK USED  *       771.70 MB      
 **********************************************************************************************************************************
 Molecular orbitals read from record     2100.2  Type=RKS/LOCAL(IBO)  
 Occupation numbers read from record     2100.2  Type=RKS/LOCAL(IBO)  
 Orbital energies read from record       2100.2  Type=RKS/LOCAL(IBO)  
 Redundancy group numbers read from rec  2100.2  Type=RKS/LOCAL(IBO)  

 IBBA/SVP energy=      0.000000000000

        KS-SCF  
   -272.68813276
 **********************************************************************************************************************************
 Molpro calculation terminated
