
 Primary working directories    : /tmp/sb13343
 Secondary working directories  : /tmp/sb13343
 Wavefunction directory         : /panfs/panasas01/chem/sb13343/wfu/
 Main file repository           : /tmp/sb13343/

 SHA1      : b4a5b34a9e711420743f49e6833241d17c61fb3c
 NAME      : 2099.9.b4a5b34
 ARCHNAME  : linux/x86_64_openmp
 FC        : /cm/shared/languages/GCC-6.1/bin/gfortran
 BLASLIB   : -lblas
 id        : simonbennie

 Nodes     nprocs
 node32-007    1

 Using customized tuning parameters: mindgm=1; mindgv=20; mindgc=4; mindgr=1; noblas=0; minvec=7
 default implementation of scratch files=df  

 memory,500,m
 geomtyp=xyz
 nosym
 noorient
 geometry={
 C          0.00000        0.00000        0.00000
 C          0.00000        0.00000        1.53307
 O          1.40344        0.00000        1.86307
 C          1.76314        0.00000        3.22887
 H         -1.02289        0.00000       -0.39176
 H          0.51995       -0.88625       -0.37815
 H          0.51995        0.88625       -0.37815
 H          2.85677        0.00000        3.25413
 H          1.40708       -0.89217        3.76475
 H          1.40708        0.89217        3.76475
 C         -0.69252       -1.26694        2.06222
 C         -0.69252        1.26694        2.06222
 H         -0.15366       -2.16088        1.72982
 H         -0.15366        2.16088        1.72982
 H         -1.72011       -1.32515        1.68649
 H         -1.72011        1.32515        1.68649
 H         -0.74365       -1.28188        3.15638
 H         -0.74365        1.28188        3.15638
 }
 basis={ default,sto-3g }
 {uks,SLATER,direct;wf,50,1,0}
 {ibba,bonds=1}

 Variables initialized (895), CPU time= 0.00 sec
 Commands  initialized (725), CPU time= 0.02 sec, 591 directives.
 Default parameters read. Elapsed time= 0.09 sec

 Checking input...
 Passed
1


                                         ***  PROGRAM SYSTEM MOLPRO  ***
                                       Copyright, TTI GmbH Stuttgart, 2015
                                    Version 2099.9 linked May 26 2017 16:03:21


 **********************************************************************************************************************************
 LABEL *                                                                                 
  64 bit serial version                                                                  DATE: 09-Jun-17          TIME: 01:43:25  
 **********************************************************************************************************************************

 SHA1:             b4a5b34a9e711420743f49e6833241d17c61fb3c
 **********************************************************************************************************************************
 SETTING GEOMTYP        =    XYZ

 Variable memory set to  500000000 words,  buffer space 

 ZSYMEL=NOSYM

 SETTING BASIS          =    STO-3G


 Recomputing integrals since basis changed


 Using spherical harmonics

 Library entry C      S STO-3G               selected for orbital group  1
 Library entry C      P STO-3G               selected for orbital group  1
 Library entry O      S STO-3G               selected for orbital group  2
 Library entry O      P STO-3G               selected for orbital group  2
 Library entry H      S STO-3G               selected for orbital group  4


 PROGRAM * SEWARD (Integral evaluation for generally contracted gaussian basis sets)     Author: Roland Lindh, 1990

 Geometry written to block  1 of record 700


 Point group  C1  



 ATOMIC COORDINATES

 NR  ATOM    CHARGE       X              Y              Z

   1  C       6.00    0.000000000    0.000000000    0.000000000
   2  C       6.00    0.000000000    0.000000000    2.897082430
   3  O       8.00    2.652117232    0.000000000    3.520692051
   4  C       6.00    3.331851719    0.000000000    6.101679992
   5  H       1.00   -1.932981956    0.000000000   -0.740319107
   6  H       1.00    0.982563098   -1.674769778   -0.714599934
   7  H       1.00    0.982563098    1.674769778   -0.714599934
   8  H       1.00    5.398512901    0.000000000    6.149414474
   9  H       1.00    2.658995835   -1.685956957    7.114346427
  10  H       1.00    2.658995835    1.685956957    7.114346427
  11  C       6.00   -1.308673136   -2.394169616    3.897031009
  12  C       6.00   -1.308673136    2.394169616    3.897031009
  13  H       1.00   -0.290375316   -4.083471388    3.268886045
  14  H       1.00   -0.290375316    4.083471388    3.268886045
  15  H       1.00   -3.250536804   -2.504170574    3.187004212
  16  H       1.00   -3.250536804    2.504170574    3.187004212
  17  H       1.00   -1.405294833   -2.422402125    5.964693745
  18  H       1.00   -1.405294833    2.422402125    5.964693745

 Bond lengths in Bohr (Angstrom)

 1-2  2.897082430  1-5  2.069901355  1-6  2.069042560  1-7  2.069042560  2-3  2.724447609
     ( 1.533070000)     ( 1.095344626)     ( 1.094890171)     ( 1.094890171)     ( 1.441715587)

  2-11  2.905954351   2-12  2.905954351   3- 4  2.668995640   4- 8  2.067212379   4- 9  2.078624355
       ( 1.537764818)       ( 1.537764818)       ( 1.412371669)       ( 1.093921681)       ( 1.099960639)

  4-10  2.078624355  11-13  2.070081404  11-15  2.070524757  11-17  2.070111596  12-14  2.070081404
       ( 1.099960639)       ( 1.095439904)       ( 1.095674516)       ( 1.095455880)       ( 1.095439904)

 12-16  2.070524757  12-18  2.070111596
       ( 1.095674516)       ( 1.095455880)

 Bond angles

  1- 2- 3  103.23196371   1- 2-11  110.12706952   1- 2-12  110.12706952   2- 1- 5  110.95650426

  2- 1- 6  110.20481748   2- 1- 7  110.20481748   2- 3- 4  117.98647004   2-11-13  110.26679927

  2-11-15  110.37287188   2-11-17  112.08316935   2-12-14  110.26679927   2-12-16  110.37287188

  2-12-18  112.08316935   3- 2-11  111.07703285   3- 2-12  111.07703285   3- 4- 8  106.07765410

  3- 4- 9  112.87219182   3- 4-10  112.87219182   5- 1- 6  108.65976572   5- 1- 7  108.65976572

  6- 1- 7  108.08288210   8- 4- 9  108.20190897   8- 4-10  108.20190897   9- 4-10  108.40564999

 11- 2-12  110.95103964  13-11-15  108.29648994  13-11-17  108.35544687  14-12-16  108.29648994

 14-12-18  108.35544687  15-11-17  107.33851825  16-12-18  107.33851825

 NUCLEAR CHARGE:                   50
 NUMBER OF PRIMITIVE AOS:         126
 NUMBER OF SYMMETRY AOS:          126
 NUMBER OF CONTRACTIONS:           42   (  42A   )
 NUMBER OF CORE ORBITALS:           6   (   6A   )
 NUMBER OF VALENCE ORBITALS:       36   (  36A   )


 NUCLEAR REPULSION ENERGY  270.15500869


 Eigenvalues of metric

         1 0.207E+00 0.226E+00 0.228E+00 0.234E+00 0.307E+00 0.355E+00 0.359E+00 0.362E+00


 Contracted 2-electron integrals neglected if value below      1.0D-11
 AO integral compression algorithm  1   Integral accuracy      1.0D-11

     2.884 MB (compressed) written to integral file ( 84.3%)


 NUMBER OF SORTED TWO-ELECTRON INTEGRALS:     408156.     BUFFER LENGTH:  32768
 NUMBER OF SEGMENTS:   1  SEGMENT LENGTH:     408156      RECORD LENGTH: 524288

 Memory used in sort:       0.97 MW

 SORT1 READ      453477. AND WROTE      382834. INTEGRALS IN      2 RECORDS. CPU TIME:     0.01 SEC, REAL TIME:     0.03 SEC
 SORT2 READ      382834. AND WROTE      408156. INTEGRALS IN     11 RECORDS. CPU TIME:     0.03 SEC, REAL TIME:     0.04 SEC

 FILE SIZES:   FILE 1:    33.2 MBYTE,  FILE 4:     8.4 MBYTE,   TOTAL:     41.6 MBYTE

 OPERATOR DM      FOR CENTER  0  COORDINATES:    0.000000    0.000000    0.000000


 **********************************************************************************************************************************
 DATASETS  * FILE   NREC   LENGTH (MB)   RECORD NAMES
              1      19       31.98       500      610      700      900      950      970     1000      129      960     1100   
                                          VAR    BASINP    GEOM    SYMINP    ZMAT    AOBASIS   BASIS     P2S    ABASIS      S 
                                         1400     1410     1200     1210     1080     1600     1650     1300     1700   
                                           T        V       H0       H01     AOSYM     SMH    MOLCAS    ERIS     OPER   

 PROGRAMS   *        TOTAL       INT
 CPU TIMES  *         0.82      0.68
 REAL TIME  *         2.05 SEC
 DISK USED  *        42.19 MB      
 **********************************************************************************************************************************

 Density functional group SLATER=DIRAC
 Functional: DIRAC(Automatically generated (new) DIRAC)                        Gradient terms: 0
 Use grid at  1800.2

 Functional: DIRAC                     Factor:  1.0000

 Generated new metagrid on record  1800.2 with target accuracy 1.0D-06 and 66012 points in CPU time    2.0
 Computed new grid on record 1800.1 in CPU time    2.2
   22104 words reserved for DFT integration

 PROGRAM * UKS-SCF (Unrestricted Kohn-Sham)     Authors: W. Meyer, H.-J. Werner, P.J. Knowles, 1993

 NUMBER OF ELECTRONS:      25+   25-    SPACE SYMMETRY=1    SPIN SYMMETRY: Singlet 
 CONVERGENCE THRESHOLDS:    1.00E-05 (Density)    1.00E-06 (Energy)
 MAX. NUMBER OF ITERATIONS:       60
 INTERPOLATION TYPE:            DIIS
 INTERPOLATION STEPS:              2 (START)      1 (STEP)
 LEVEL SHIFTS:                 -0.20 (ALPHA)  -0.20 (BETA) 



 Use fine grid record 1800.2 for energy threshold  1.0D-06
 Orbital guess generated from atomic densities. Full valence occupancy:   25

 Molecular orbital dump at record        2200.2

 Initial alpha occupation  25
 Initial beta  occupation  25

 ITERATION    DDIFF          GRAD             ENERGY        2-EL.EN.            DIPOLE MOMENTS         DIIS
    1      0.000D+00      0.000D+00      -263.50923409    825.418845   -0.86723    0.00000    0.82163    0
    2      0.604D-01      0.194D-01      -263.94690068    799.616943   -0.21757    0.00000    0.02809    1
    3      0.114D-01      0.472D-02      -263.97114314    803.970410   -0.31522    0.00000    0.19637    2
    4      0.101D-02      0.410D-03      -263.97140063    803.948368   -0.33068    0.00000    0.20503    3
    5      0.470D-03      0.137D-03      -263.97144293    803.935345   -0.32769    0.00000    0.20540    4
    6      0.164D-03      0.349D-04      -263.97144647    803.933857   -0.32679    0.00000    0.20640    5
    7      0.345D-04      0.836D-05      -263.97144655    803.934014   -0.32664    0.00000    0.20604    5
    8      0.127D-04      0.530D-05      -263.97144659    803.933631   -0.32661    0.00000    0.20620    6
    9      0.210D-05      0.347D-06      -263.97144659    803.933730   -0.32659    0.00000    0.20619    6
   10      0.438D-06      0.127D-06      -263.97144659    803.933662   -0.32660    0.00000    0.20620    6

 Final alpha occupancy:  25
 Final beta  occupancy:  25

 !UKS STATE 1.1 Energy               -263.971446586187
 Nuclear energy                       270.15500869
 One-electron energy                 -901.44303697
 Two-electron energy                  401.96683095
 Density functional                   -34.65024926     DIRAC=-34.65024926
 Virial quotient                       -0.99686497
 !UKS STATE 1.1 Dipole moment          -0.32659751     0.00000000     0.20619879
 Dipole moment /Debye                  -0.83007371     0.00000000     0.52407071

 Orbital energies for positive spin:

         1.1          2.1          3.1          4.1          5.1          6.1          7.1          8.1          9.1         10.1
    -18.226544    -9.555214    -9.527944    -9.488404    -9.486931    -9.486822    -0.796393    -0.609298    -0.518873    -0.515372

        11.1         12.1         13.1         14.1         15.1         16.1         17.1         18.1         19.1         20.1
     -0.491765    -0.375268    -0.323044    -0.299702    -0.295027    -0.275891    -0.255948    -0.240495    -0.229801    -0.215356

        21.1         22.1         23.1         24.1         25.1         26.1         27.1
     -0.214448    -0.185483    -0.181908    -0.063715     0.004800     0.297345     0.377991

 Orbital energies for negative spin:

         1.1          2.1          3.1          4.1          5.1          6.1          7.1          8.1          9.1         10.1
    -18.226544    -9.555214    -9.527944    -9.488404    -9.486931    -9.486822    -0.796393    -0.609298    -0.518873    -0.515372

        11.1         12.1         13.1         14.1         15.1         16.1         17.1         18.1         19.1         20.1
     -0.491765    -0.375268    -0.323044    -0.299702    -0.295027    -0.275891    -0.255948    -0.240495    -0.229801    -0.215356

        21.1         22.1         23.1         24.1         25.1         26.1         27.1
     -0.214448    -0.185483    -0.181908    -0.063715     0.004800     0.297345     0.377991

 HOMO     25.1     0.004800 =       0.1306eV
 LUMO     26.1     0.297345 =       8.0912eV
 LUMO-HOMO         0.292545 =       7.9606eV

 EXPECTATION VALUE OF S**2:            -0.00000000

 Natural orbitals saved to record    2200.2 (Orbital set 3)

 Orbital spaces for UNO-CAS (Min. occupation: 0.020  Max. occupation: 1.980):

 Closed:       25
 Active:        0


 **********************************************************************************************************************************
 DATASETS  * FILE   NREC   LENGTH (MB)   RECORD NAMES
              1      20       34.09       500      610      700      900      950      970     1000      129      960     1100   
                                          VAR    BASINP    GEOM    SYMINP    ZMAT    AOBASIS   BASIS     P2S    ABASIS      S 
                                         1400     1410     1200     1210     1080     1600     1650     1300     1700     1800   
                                           T        V       H0       H01     AOSYM     SMH    MOLCAS    ERIS     OPER     GRID   

              2       5        3.13       700     1000      520     1800     2200   
                                         GEOM     BASIS   MCVARS    GRID      UKS  

 PROGRAMS   *        TOTAL       UKS       INT
 CPU TIMES  *         6.78      5.96      0.68
 REAL TIME  *         8.83 SEC
 DISK USED  *        42.19 MB      
 **********************************************************************************************************************************


 PROGRAM * Intrinsic Basis Bonding Analysis (IBBA)          Author: G. Knizia

 Molecular orbitals read from record     2200.2  Type=UKS/ALPHA (state 1.1)
 Fock matrix read from record            2200.2  Type=UKS/TOTAL (state 1.1)
 Orbital energies read from record       2200.2  Type=UKS/ALPHA (state 1.1)
 Density matrix read from record         2200.2  Type=UKS/CHARGE (state 1.1)

 Number of core orbitals:           6 (   6 )
 Number of closed-shell orbitals:  19 (  19 )

 Basis set MINAO-AUTO-PP generated.      Number of basis functions:   42 

 Polarized AO type:                A = (O Ot + (1-O)(1-Ot)) P12
 Orthogonalization method:         Symmetric (Loewdin)
 Localization functional:          L = sum[A,i] <i|n_A|i>^4 -> max

 Localization group 1:  25 orbitals, occupancy  2.000
 Iterative localization: IB/PM,    7 iter; Final gradient 0.32E-08

 Bond order analysis:       [THRPRINT= 0.020]

   CEN ATOM   CEN ATOM     WIBERG.BO      RENORM.BO
     1   C  -   2   C       0.988451       0.985602
     1   C  -   5   H       0.961897       0.989332
     1   C  -   6   H       0.959044       0.986483
     1   C  -   7   H       0.959044       0.986483

     2   C  -   1   C       0.988451       0.985602
     2   C  -   3   O       0.983653       0.956950
     2   C  -  12   C       0.983527       0.956686
     2   C  -  11   C       0.983527       0.956686

     3   O  -   4   C       1.028699       1.015574
     3   O  -   2   C       0.983653       0.956950
     3   O  -   9   H       0.034188       0.020521
     3   O  -  10   H       0.034188       0.020521
     3   O  -  12   C       0.029553       0.015697
     3   O  -  11   C       0.029553       0.015697

     4   C  -   3   O       1.028699       1.015574
     4   C  -   8   H       0.949160       0.972152
     4   C  -   9   H       0.946339       0.938095
     4   C  -  10   H       0.946339       0.938095

     5   H  -   1   C       0.961897       0.989332

     6   H  -   1   C       0.959044       0.986483

     7   H  -   1   C       0.959044       0.986483

     8   H  -   4   C       0.949160       0.972152

     9   H  -   4   C       0.946339       0.938095
     9   H  -   3   O       0.034188       0.020521

    10   H  -   4   C       0.946339       0.938095
    10   H  -   3   O       0.034188       0.020521

    11   C  -   2   C       0.983527       0.956686
    11   C  -  17   H       0.960868       0.984929
    11   C  -  13   H       0.959709       0.986252
    11   C  -  15   H       0.959354       0.988843
    11   C  -   3   O       0.029553       0.015697

    12   C  -   2   C       0.983527       0.956686
    12   C  -  18   H       0.960868       0.984929
    12   C  -  14   H       0.959709       0.986252
    12   C  -  16   H       0.959354       0.988843
    12   C  -   3   O       0.029553       0.015697

    13   H  -  11   C       0.959709       0.986252

    14   H  -  12   C       0.959709       0.986252

    15   H  -  11   C       0.959354       0.988843

    16   H  -  12   C       0.959354       0.988843

    17   H  -  11   C       0.960868       0.984929

    18   H  -  12   C       0.960868       0.984929


 Valency analysis:

   CEN ATOM   TOT.VALENCE
     1   C       3.923243
     2   C       3.972428
     3   O       2.202716
     4   C       3.894855
     5   H       0.980533
     6   H       0.978879
     7   H       0.978879
     8   H       0.977944
     9   H       0.986134
    10   H       0.986134
    11   C       3.924794
    12   C       3.924794
    13   H       0.979683
    14   H       0.979683
    15   H       0.979626
    16   H       0.979626
    17   H       0.981579
    18   H       0.981579

 Total charge composition:

   CEN ATOM         s          p       ELECTRONS ->P.CHARGE
     1   C       2.99211    3.42366      6.41577   -0.41577
     2   C       2.94004    2.95300      5.89303    0.10697
     3   O       3.65168    4.54033      8.19200   -0.19200
     4   C       2.99987    3.29765      6.29751   -0.29751
     5   H       0.86047                 0.86047    0.13953
     6   H       0.85467                 0.85467    0.14533
     7   H       0.85467                 0.85467    0.14533
     8   H       0.85149                 0.85149    0.14851
     9   H       0.88225                 0.88225    0.11775
    10   H       0.88225                 0.88225    0.11775
    11   C       2.99246    3.43648      6.42894   -0.42894
    12   C       2.99246    3.43648      6.42894   -0.42894
    13   H       0.85746                 0.85746    0.14254
    14   H       0.85746                 0.85746    0.14254
    15   H       0.85726                 0.85726    0.14274
    16   H       0.85726                 0.85726    0.14274
    17   H       0.86428                 0.86428    0.13572
    18   H       0.86428                 0.86428    0.13572

 Total charge composition, AO contributions:

   CEN ATOM SHL      SPHERICAL COMPONENTS
     1   C  1s       1.99293
     1   C  2s       0.99918
     1   C  2p       1.18050    1.18847    1.05469

     2   C  1s       1.99425
     2   C  2s       0.94579
     2   C  2p       0.87799    1.03897    1.03603

     3   O  1s       1.99767
     3   O  2s       1.65401
     3   O  2p       1.31068    1.89953    1.33012

     4   C  1s       1.99340
     4   C  2s       1.00646
     4   C  2p       1.17949    1.19124    0.92692

     5   H  1s       0.86047

     6   H  1s       0.85467

     7   H  1s       0.85467

     8   H  1s       0.85149

     9   H  1s       0.88225

    10   H  1s       0.88225

    11   C  1s       1.99299
    11   C  2s       0.99948
    11   C  2p       1.16161    1.10769    1.16718

    12   C  1s       1.99299
    12   C  2s       0.99948
    12   C  2p       1.16161    1.10769    1.16718

    13   H  1s       0.85746

    14   H  1s       0.85746

    15   H  1s       0.85726

    16   H  1s       0.85726

    17   H  1s       0.86428

    18   H  1s       0.86428

 Summary of localized orbital composition:   [THRPRINT= 0.020]

   ORB  GRP  ORB.ENERGY      CENTERS/CHARGES
     1   1   -18.077769      O  3   2.000
     2   1    -9.466791      C  2   2.000
     3   1    -9.425412      C  4   2.000
     4   1    -9.381531      C  1   2.000
     5   1    -9.380705      C 11   2.000
     6   1    -9.380705      C 12   2.000
     7   1    -0.530927      O  3   1.154   C  4   0.836
     8   1    -0.496259      O  3   1.162   C  2   0.813   (other: 0.026)
     9   1    -0.400943      C  2   0.995   C  1   0.980   (other: 0.025)
    10   1    -0.399828      C 11   0.993   C  2   0.991
    11   1    -0.399828      C 12   0.993   C  2   0.991
    12   1    -0.359253      C  4   1.149   H  8   0.841
    13   1    -0.357966      C  4   1.137   H 10   0.861
    14   1    -0.357966      C  4   1.137   H  9   0.861
    15   1    -0.344634      C  1   1.135   H  5   0.853
    16   1    -0.344305      C 11   1.134   H 17   0.856
    17   1    -0.344305      C 12   1.134   H 18   0.856
    18   1    -0.343964      C 12   1.138   H 16   0.849
    19   1    -0.343964      C 11   1.138   H 15   0.849
    20   1    -0.340447      C 12   1.140   H 14   0.850
    21   1    -0.340447      C 11   1.140   H 13   0.850
    22   1    -0.337964      C  1   1.143   H  6   0.847
    23   1    -0.337964      C  1   1.143   H  7   0.847
    24   1    -0.333379      O  3   1.965   (other: 0.035)
    25   1    -0.027599      O  3   1.899   C  2   0.024   (other: 0.077)

 Localized orbitals saved to record      2200.2  (orbital set 4)


 **********************************************************************************************************************************
 DATASETS  * FILE   NREC   LENGTH (MB)   RECORD NAMES
              1      20       34.09       500      610      700      900      950      970     1000      129      960     1100   
                                          VAR    BASINP    GEOM    SYMINP    ZMAT    AOBASIS   BASIS     P2S    ABASIS      S 
                                         1400     1410     1200     1210     1080     1600     1650     1300     1700     1800   
                                           T        V       H0       H01     AOSYM     SMH    MOLCAS    ERIS     OPER     GRID   

              2       5        3.15       700     1000      520     1800     2200   
                                         GEOM     BASIS   MCVARS    GRID      UKS  

 PROGRAMS   *        TOTAL      IBBA       UKS       INT
 CPU TIMES  *         6.83      0.05      5.96      0.68
 REAL TIME  *         9.01 SEC
 DISK USED  *        42.19 MB      
 **********************************************************************************************************************************
 Molecular orbitals read from record     2200.2  Type=UKS/LOCAL(IBO)  
 Occupation numbers read from record     2200.2  Type=UKS/LOCAL(IBO)  
 Orbital energies read from record       2200.2  Type=UKS/LOCAL(IBO)  
 Redundancy group numbers read from rec  2200.2  Type=UKS/BETA (state 1.1)

 IBBA/STO-3G energy=      0.000000000000

        UKS-SCF 
   -263.97144659
 **********************************************************************************************************************************
 Molpro calculation terminated
