
 Primary working directories    : /tmp/sb13343
 Secondary working directories  : /tmp/sb13343
 Wavefunction directory         : /panfs/panasas01/chem/sb13343/wfu/
 Main file repository           : /tmp/sb13343/

 SHA1      : b4a5b34a9e711420743f49e6833241d17c61fb3c
 NAME      : 2099.9.b4a5b34
 ARCHNAME  : linux/x86_64_openmp
 FC        : /cm/shared/languages/GCC-6.1/bin/gfortran
 BLASLIB   : -lblas
 id        : simonbennie

 Nodes     nprocs
 node32-034    1

 Using customized tuning parameters: mindgm=1; mindgv=20; mindgc=4; mindgr=1; noblas=0; minvec=7
 default implementation of scratch files=df  

 memory,500,m
 geomtyp=xyz
 nosym
 noorient
 geometry={
 C          0.00000        0.00000        0.00000
 H          0.00000        0.00000        1.10056
 C          1.46209        0.00000       -0.46855
 C         -0.73105       -1.26621       -0.46855
 C         -0.73105        1.26621       -0.46855
 H          1.52118        0.00000       -1.56505
 H         -0.76059       -1.31738       -1.56505
 H         -0.76059        1.31738       -1.56505
 H          1.99755        0.88622       -0.10723
 H          1.99755       -0.88622       -0.10723
 H         -0.23129       -2.17304       -0.10723
 H         -1.76626       -1.28682       -0.10723
 H         -1.76626        1.28682       -0.10723
 H         -0.23129        2.17304       -0.10723
 }
 basis={ default,svp }
 {ks,M08-SO,direct;wf,34,1,0}
 {ibba,bonds=1}

 Variables initialized (895), CPU time= 0.00 sec
 Commands  initialized (725), CPU time= 0.01 sec, 591 directives.
 Default parameters read. Elapsed time= 0.08 sec

 Checking input...
 Passed
1


                                         ***  PROGRAM SYSTEM MOLPRO  ***
                                       Copyright, TTI GmbH Stuttgart, 2015
                                    Version 2099.9 linked May 26 2017 16:03:21


 **********************************************************************************************************************************
 LABEL *                                                                                 
  64 bit serial version                                                                  DATE: 09-Jun-17          TIME: 00:05:17  
 **********************************************************************************************************************************

 SHA1:             b4a5b34a9e711420743f49e6833241d17c61fb3c
 **********************************************************************************************************************************
 SETTING GEOMTYP        =    XYZ

 Variable memory set to  500000000 words,  buffer space 

 ZSYMEL=NOSYM

 SETTING BASIS          =    SVP


 Recomputing integrals since basis changed


 Using spherical harmonics

 Library entry C      S def2-SVP             selected for orbital group  1
 Library entry C      P def2-SVP             selected for orbital group  1
 Library entry C      D def2-SVP             selected for orbital group  1
 Library entry H      S def2-SVP             selected for orbital group  2
 Library entry H      P def2-SVP             selected for orbital group  2


 PROGRAM * SEWARD (Integral evaluation for generally contracted gaussian basis sets)     Author: Roland Lindh, 1990

 Geometry written to block  1 of record 700


 Point group  C1  



 ATOMIC COORDINATES

 NR  ATOM    CHARGE       X              Y              Z

   1  C       6.00    0.000000000    0.000000000    0.000000000
   2  H       1.00    0.000000000    0.000000000    2.079756984
   3  C       6.00    2.762949669    0.000000000   -0.885431176
   4  C       6.00   -1.381484283   -2.392790116   -0.885431176
   5  C       6.00   -1.381484283    2.392790116   -0.885431176
   6  H       1.00    2.874613586    0.000000000   -2.957515871
   7  H       1.00   -1.437306793   -2.489487402   -2.957515871
   8  H       1.00   -1.437306793    2.489487402   -2.957515871
   9  H       1.00    3.774822420    1.674713086   -0.202635332
  10  H       1.00    3.774822420   -1.674713086   -0.202635332
  11  H       1.00   -0.437074755   -4.106450458   -0.202635332
  12  H       1.00   -3.337747665   -2.431737372   -0.202635332
  13  H       1.00   -3.337747665    2.431737372   -0.202635332
  14  H       1.00   -0.437074755    4.106450458   -0.202635332

 Bond lengths in Bohr (Angstrom)

 1-2  2.079756984  1-3  2.901358172  1-4  2.901367218  1-5  2.901367218  3-6  2.075091279
     ( 1.100560000)     ( 1.535332625)     ( 1.535337412)     ( 1.535337412)     ( 1.098091015)

  3- 9  2.072380406   3-10  2.072380406   4- 7  2.075090722   4-11  2.072378172   4-12  2.072364222
       ( 1.096656483)       ( 1.096656483)       ( 1.098090721)       ( 1.096655301)       ( 1.096647919)

  5- 8  2.075090722   5-13  2.072364222   5-14  2.072378172
       ( 1.098090721)       ( 1.096647919)       ( 1.096655301)

 Bond angles

  1- 3- 6  110.85354902   1- 3- 9  111.37220114   1- 3-10  111.37220114   1- 4- 7  110.85320625

  1- 4-11  111.37204414   1- 4-12  111.37216555   1- 5- 8  110.85320625   1- 5-13  111.37216555

  1- 5-14  111.37204414   2- 1- 3  107.76888332   2- 1- 4  107.76882608   2- 1- 5  107.76882608

  3-1-4  111.11870751   3-1-5  111.11870751   4-1-5  111.11845005   6-3-9  107.62119374

  6- 3-10  107.62119374   7- 4-11  107.62125572   7- 4-12  107.62162102   8- 5-13  107.62162102

  8- 5-14  107.62125572   9- 3-10  107.82352924  11- 4-12  107.82360822  13- 5-14  107.82360822

 NUCLEAR CHARGE:                   34
 NUMBER OF PRIMITIVE AOS:         170
 NUMBER OF SYMMETRY AOS:          166
 NUMBER OF CONTRACTIONS:          106   ( 106A   )
 NUMBER OF CORE ORBITALS:           4   (   4A   )
 NUMBER OF VALENCE ORBITALS:       26   (  26A   )


 NUCLEAR REPULSION ENERGY  134.07051350


 Eigenvalues of metric

         1 0.225E-02 0.614E-02 0.614E-02 0.233E-01 0.256E-01 0.268E-01 0.268E-01 0.277E-01


 Contracted 2-electron integrals neglected if value below      1.0D-11
 AO integral compression algorithm  1   Integral accuracy      1.0D-11

     64.750 MB (compressed) written to integral file ( 46.7%)


 NUMBER OF SORTED TWO-ELECTRON INTEGRALS:   16082956.     BUFFER LENGTH:  32768
 NUMBER OF SEGMENTS:   2  SEGMENT LENGTH:   15997996      RECORD LENGTH: 524288

 Memory used in sort:      16.56 MW

 SORT1 READ    17384690. AND WROTE    14795173. INTEGRALS IN     44 RECORDS. CPU TIME:     0.21 SEC, REAL TIME:     0.41 SEC
 SORT2 READ    14795173. AND WROTE    16082956. INTEGRALS IN    247 RECORDS. CPU TIME:     0.39 SEC, REAL TIME:     0.49 SEC

 FILE SIZES:   FILE 1:    95.4 MBYTE,  FILE 4:   184.6 MBYTE,   TOTAL:    279.9 MBYTE

 OPERATOR DM      FOR CENTER  0  COORDINATES:    0.000000    0.000000    0.000000


 **********************************************************************************************************************************
 DATASETS  * FILE   NREC   LENGTH (MB)   RECORD NAMES
              1      19       87.57       500      610      700      900      950      970     1000      129      960     1100   
                                          VAR    BASINP    GEOM    SYMINP    ZMAT    AOBASIS   BASIS     P2S    ABASIS      S 
                                         1400     1410     1200     1210     1080     1600     1650     1300     1700   
                                           T        V       H0       H01     AOSYM     SMH    MOLCAS    ERIS     OPER   

 PROGRAMS   *        TOTAL       INT
 CPU TIMES  *         2.60      2.46
 REAL TIME  *         3.35 SEC
 DISK USED  *       280.45 MB      
 **********************************************************************************************************************************

 Density functional group M08-SO=XC-M08-SO
 Functional: XC-M08-SO(via MFM 1.6)                                            Gradient terms: 1
 Use grid at  1800.2


 Exact exchange will be calculated, factor:  0.5679

 Functional: XC-M08-SO                 Factor:  1.0000

 Generated new metagrid on record  1800.2 with target accuracy 1.0D-06 and 45620 points in CPU time    1.0
 Computed new grid on record 1800.1 in CPU time    1.2
   88342 words reserved for DFT integration

 PROGRAM * RKS-SCF (Restricted closed shell Kohn-Sham)     Authors: W. Meyer, H.-J. Werner, P.J. Knowles, 1993

 NUMBER OF ELECTRONS:      17+   17-    SPACE SYMMETRY=1    SPIN SYMMETRY: Singlet 
 CONVERGENCE THRESHOLDS:    1.00E-05 (Density)    1.00E-06 (Energy)
 MAX. NUMBER OF ITERATIONS:       60
 INTERPOLATION TYPE:            DIIS
 INTERPOLATION STEPS:              2 (START)      1 (STEP)
 LEVEL SHIFTS:                  0.00 (CLOSED)  0.00 (OPEN) 



 Use fine grid record 1800.2 for energy threshold  1.0D-06
 Orbital guess generated from atomic densities. Full valence occupancy:   17

 Molecular orbital dump at record        2100.2

 Initial occupancy:  17

 ITERATION    DDIFF          GRAD             ENERGY        2-EL.EN.            DIPOLE MOMENTS         DIIS   ORB.
    1      0.000D+00      0.000D+00      -158.12332366    399.070452   -0.00032   -0.00000   -0.00771    0    start
    2      0.000D+00      0.753D-02      -158.14995066    383.092375   -0.01757   -0.00000    0.01975    1    diag
    3      0.126D-01      0.693D-02      -158.22759006    390.796212   -0.00982   -0.00000    0.05370    2    diag
    4      0.612D-02      0.391D-03      -158.22779103    390.608172   -0.01216   -0.00000    0.02935    3    diag
    5      0.532D-03      0.243D-03      -158.22788059    390.682502   -0.01231   -0.00000    0.03125    4    diag
    6      0.226D-03      0.329D-04      -158.22788230    390.682674   -0.01221   -0.00000    0.03586    5    diag
    7      0.488D-04      0.635D-05      -158.22788237    390.684402   -0.01222   -0.00000    0.03435    6    diag
    8      0.839D-05      0.727D-06      -158.22788237    390.684189   -0.01223   -0.00000    0.03456    0    orth

 Final occupancy:  17

 !RKS STATE 1.1 Energy               -158.227882374122
 Nuclear energy                       134.07051350
 One-electron energy                 -476.13123166
 Two-electron energy                  195.34209447
 SCF exchange energy                  -24.20000300     Factor= 0.5679
 Density functional                   -11.50925868     XC-M08-SO=-11.50925868
 Virial quotient                       -1.01523933
 !RKS STATE 1.1 Dipole moment          -0.01223181    -0.00000000     0.03455998
 Dipole moment /Debye                  -0.03108813    -0.00000000     0.08783697

 Orbital energies:

         1.1          2.1          3.1          4.1          5.1          6.1          7.1          8.1          9.1         10.1
    -10.512956   -10.500246   -10.500227   -10.500177    -0.893374    -0.764690    -0.764549    -0.635055    -0.536588    -0.502531

        11.1         12.1         13.1         14.1         15.1         16.1         17.1         18.1         19.1
     -0.502434    -0.451071    -0.450853    -0.429714    -0.392292    -0.391705    -0.384849     0.075364     0.122237

 HOMO     17.1    -0.384849 =     -10.4723eV
 LUMO     18.1     0.075364 =       2.0508eV
 LUMO-HOMO         0.460213 =      12.5230eV


 **********************************************************************************************************************************
 DATASETS  * FILE   NREC   LENGTH (MB)   RECORD NAMES
              1      20       89.03       500      610      700      900      950      970     1000      129      960     1100   
                                          VAR    BASINP    GEOM    SYMINP    ZMAT    AOBASIS   BASIS     P2S    ABASIS      S 
                                         1400     1410     1200     1210     1080     1600     1650     1300     1700     1800   
                                           T        V       H0       H01     AOSYM     SMH    MOLCAS    ERIS     OPER     GRID   

              2       5        3.22       700     1000      520     1800     2100   
                                         GEOM     BASIS   MCVARS    GRID      RKS  

 PROGRAMS   *        TOTAL        KS       INT
 CPU TIMES  *        21.30     18.70      2.46
 REAL TIME  *        23.26 SEC
 DISK USED  *       280.45 MB      
 **********************************************************************************************************************************


 PROGRAM * Intrinsic Basis Bonding Analysis (IBBA)          Author: G. Knizia

 Molecular orbitals read from record     2100.2  Type=RKS/CANONICAL (state 1.1)
 Fock matrix read from record            2100.2  Type=RKS/TOTAL (state 1.1)
 Orbital energies read from record       2100.2  Type=RKS/CANONICAL (state 1.1)
 Density matrix read from record         2100.2  Type=RKS/CHARGE (state 1.1)

 Number of core orbitals:           4 (   4 )
 Number of closed-shell orbitals:  13 (  13 )

 Basis set MINAO-AUTO-PP generated.      Number of basis functions:   30 

 Polarized AO type:                A = (O Ot + (1-O)(1-Ot)) P12
 Orthogonalization method:         Symmetric (Loewdin)
 Localization functional:          L = sum[A,i] <i|n_A|i>^4 -> max

 Localization group 1:  17 orbitals, occupancy  2.000
 Iterative localization: IB/PM,    7 iter; Final gradient 0.45E-08

 Bond order analysis:       [THRPRINT= 0.020]

   CEN ATOM   CEN ATOM     WIBERG.BO      RENORM.BO
     1   C  -   3   C       1.011876       1.009205
     1   C  -   5   C       1.011620       1.009042
     1   C  -   4   C       1.011620       1.009042
     1   C  -   2   H       0.937381       0.958391

     2   H  -   1   C       0.937381       0.958391

     3   C  -   1   C       1.011876       1.009205
     3   C  -   9   H       0.966936       0.984659
     3   C  -  10   H       0.966936       0.984659
     3   C  -   6   H       0.965460       0.980288

     4   C  -   1   C       1.011620       1.009042
     4   C  -  11   H       0.967029       0.984663
     4   C  -  12   H       0.966690       0.984822
     4   C  -   7   H       0.965645       0.980296

     5   C  -   1   C       1.011620       1.009042
     5   C  -  14   H       0.967029       0.984663
     5   C  -  13   H       0.966690       0.984822
     5   C  -   8   H       0.965645       0.980296

     6   H  -   3   C       0.965460       0.980288

     7   H  -   4   C       0.965645       0.980296

     8   H  -   5   C       0.965645       0.980296

     9   H  -   3   C       0.966936       0.984659

    10   H  -   3   C       0.966936       0.984659

    11   H  -   4   C       0.967029       0.984663

    12   H  -   4   C       0.966690       0.984822

    13   H  -   5   C       0.966690       0.984822

    14   H  -   5   C       0.967029       0.984663


 Valency analysis:

   CEN ATOM   TOT.VALENCE
     1   C       3.980307
     2   H       0.987086
     3   C       3.944985
     4   C       3.944949
     5   C       3.944949
     6   H       0.985823
     7   H       0.985983
     8   H       0.985983
     9   H       0.984931
    10   H       0.984931
    11   H       0.985033
    12   H       0.984599
    13   H       0.984599
    14   H       0.985033

 Total charge composition:

   CEN ATOM         s          p       ELECTRONS ->P.CHARGE
     1   C       2.93955    3.13520      6.07476   -0.07476
     2   H       0.88636                 0.88636    0.11364
     3   C       3.00738    3.37062      6.37800   -0.37800
     4   C       3.00734    3.37023      6.37757   -0.37757
     5   C       3.00734    3.37023      6.37757   -0.37757
     6   H       0.88093                 0.88093    0.11907
     7   H       0.88161                 0.88161    0.11839
     8   H       0.88161                 0.88161    0.11839
     9   H       0.87725                 0.87725    0.12275
    10   H       0.87725                 0.87725    0.12275
    11   H       0.87766                 0.87766    0.12234
    12   H       0.87590                 0.87590    0.12410
    13   H       0.87590                 0.87590    0.12410
    14   H       0.87766                 0.87766    0.12234

 Total charge composition, AO contributions:

   CEN ATOM SHL      SPHERICAL COMPONENTS
     1   C  1s       1.99170
     1   C  2s       0.94785
     1   C  2p       1.01209    1.01241    1.11070

     2   H  1s       0.88636

     3   C  1s       1.99112
     3   C  2s       1.01627
     3   C  2p       1.06874    1.15657    1.14531

     4   C  1s       1.99111
     4   C  2s       1.01622
     4   C  2p       1.13555    1.08999    1.14470

     5   C  1s       1.99111
     5   C  2s       1.01622
     5   C  2p       1.13555    1.08999    1.14470

     6   H  1s       0.88093

     7   H  1s       0.88161

     8   H  1s       0.88161

     9   H  1s       0.87725

    10   H  1s       0.87725

    11   H  1s       0.87766

    12   H  1s       0.87590

    13   H  1s       0.87590

    14   H  1s       0.87766

 Summary of localized orbital composition:   [THRPRINT= 0.020]

   ORB  GRP  ORB.ENERGY      CENTERS/CHARGES
     1   1   -10.408050      C  1   2.000
     2   1   -10.384909      C  5   2.000
     3   1   -10.384909      C  4   2.000
     4   1   -10.384861      C  3   2.000
     5   1    -0.630807      C  3   1.005   C  1   0.979
     6   1    -0.630565      C  4   1.004   C  1   0.980
     7   1    -0.630565      C  5   1.004   C  1   0.980
     8   1    -0.567682      C  4   1.123   H 12   0.869
     9   1    -0.567682      C  5   1.123   H 13   0.869
    10   1    -0.566280      C  5   1.121   H 14   0.871
    11   1    -0.566280      C  4   1.121   H 11   0.871
    12   1    -0.566258      C  3   1.121   H 10   0.870
    13   1    -0.566258      C  3   1.121   H  9   0.870
    14   1    -0.566040      C  3   1.118   H  6   0.874
    15   1    -0.565952      C  5   1.117   H  8   0.875
    16   1    -0.565952      C  4   1.117   H  7   0.875
    17   1    -0.560264      C  1   1.099   H  2   0.873   (other: 0.028)

 Localized orbitals saved to record      2100.2  (orbital set 2)


 **********************************************************************************************************************************
 DATASETS  * FILE   NREC   LENGTH (MB)   RECORD NAMES
              1      20       89.03       500      610      700      900      950      970     1000      129      960     1100   
                                          VAR    BASINP    GEOM    SYMINP    ZMAT    AOBASIS   BASIS     P2S    ABASIS      S 
                                         1400     1410     1200     1210     1080     1600     1650     1300     1700     1800   
                                           T        V       H0       H01     AOSYM     SMH    MOLCAS    ERIS     OPER     GRID   

              2       5        3.31       700     1000      520     1800     2100   
                                         GEOM     BASIS   MCVARS    GRID      RKS  

 PROGRAMS   *        TOTAL      IBBA        KS       INT
 CPU TIMES  *        21.33      0.03     18.70      2.46
 REAL TIME  *        23.37 SEC
 DISK USED  *       280.45 MB      
 **********************************************************************************************************************************
 Molecular orbitals read from record     2100.2  Type=RKS/LOCAL(IBO)  
 Occupation numbers read from record     2100.2  Type=RKS/LOCAL(IBO)  
 Orbital energies read from record       2100.2  Type=RKS/LOCAL(IBO)  
 Redundancy group numbers read from rec  2100.2  Type=RKS/LOCAL(IBO)  

 IBBA/SVP energy=      0.000000000000

        KS-SCF  
   -158.22788237
 **********************************************************************************************************************************
 Molpro calculation terminated
