
 Primary working directories    : /tmp/sb13343
 Secondary working directories  : /tmp/sb13343
 Wavefunction directory         : /panfs/panasas01/chem/sb13343/wfu/
 Main file repository           : /tmp/sb13343/

 SHA1      : b4a5b34a9e711420743f49e6833241d17c61fb3c
 NAME      : 2099.9.b4a5b34
 ARCHNAME  : linux/x86_64_openmp
 FC        : /cm/shared/languages/GCC-6.1/bin/gfortran
 BLASLIB   : -lblas
 id        : simonbennie

 Nodes     nprocs
 node35-048    1

 Using customized tuning parameters: mindgm=1; mindgv=20; mindgc=4; mindgr=1; noblas=0; minvec=7
 default implementation of scratch files=df  

 memory,500,m
 geomtyp=xyz
 nosym
 noorient
 geometry={
 C          0.00000        0.00000        0.00000
 C          0.00000        0.00000        1.53307
 O          1.40344        0.00000        1.86307
 C          1.76314        0.00000        3.22887
 H         -1.02289        0.00000       -0.39176
 H          0.51995       -0.88625       -0.37815
 H          0.51995        0.88625       -0.37815
 H          2.85677        0.00000        3.25413
 H          1.40708       -0.89217        3.76475
 H          1.40708        0.89217        3.76475
 C         -0.69252       -1.26694        2.06222
 C         -0.69252        1.26694        2.06222
 H         -0.15366       -2.16088        1.72982
 H         -0.15366        2.16088        1.72982
 H         -1.72011       -1.32515        1.68649
 H         -1.72011        1.32515        1.68649
 H         -0.74365       -1.28188        3.15638
 H         -0.74365        1.28188        3.15638
 }
 basis={ default,svp }
 {uks,BH-LYP,direct;wf,50,1,0}
 {ibba,bonds=1}

 Variables initialized (895), CPU time= 0.00 sec
 Commands  initialized (725), CPU time= 0.02 sec, 591 directives.
 Default parameters read. Elapsed time= 0.09 sec

 Checking input...
 Passed
1


                                         ***  PROGRAM SYSTEM MOLPRO  ***
                                       Copyright, TTI GmbH Stuttgart, 2015
                                    Version 2099.9 linked May 26 2017 16:03:21


 **********************************************************************************************************************************
 LABEL *                                                                                 
  64 bit serial version                                                                  DATE: 09-Jun-17          TIME: 01:52:29  
 **********************************************************************************************************************************

 SHA1:             b4a5b34a9e711420743f49e6833241d17c61fb3c
 **********************************************************************************************************************************
 SETTING GEOMTYP        =    XYZ

 Variable memory set to  500000000 words,  buffer space 

 ZSYMEL=NOSYM

 SETTING BASIS          =    SVP


 Recomputing integrals since basis changed


 Using spherical harmonics

 Library entry C      S def2-SVP             selected for orbital group  1
 Library entry C      P def2-SVP             selected for orbital group  1
 Library entry C      D def2-SVP             selected for orbital group  1
 Library entry O      S def2-SVP             selected for orbital group  2
 Library entry O      P def2-SVP             selected for orbital group  2
 Library entry O      D def2-SVP             selected for orbital group  2
 Library entry H      S def2-SVP             selected for orbital group  4
 Library entry H      P def2-SVP             selected for orbital group  4


 PROGRAM * SEWARD (Integral evaluation for generally contracted gaussian basis sets)     Author: Roland Lindh, 1990

 Geometry written to block  1 of record 700


 Point group  C1  



 ATOMIC COORDINATES

 NR  ATOM    CHARGE       X              Y              Z

   1  C       6.00    0.000000000    0.000000000    0.000000000
   2  C       6.00    0.000000000    0.000000000    2.897082430
   3  O       8.00    2.652117232    0.000000000    3.520692051
   4  C       6.00    3.331851719    0.000000000    6.101679992
   5  H       1.00   -1.932981956    0.000000000   -0.740319107
   6  H       1.00    0.982563098   -1.674769778   -0.714599934
   7  H       1.00    0.982563098    1.674769778   -0.714599934
   8  H       1.00    5.398512901    0.000000000    6.149414474
   9  H       1.00    2.658995835   -1.685956957    7.114346427
  10  H       1.00    2.658995835    1.685956957    7.114346427
  11  C       6.00   -1.308673136   -2.394169616    3.897031009
  12  C       6.00   -1.308673136    2.394169616    3.897031009
  13  H       1.00   -0.290375316   -4.083471388    3.268886045
  14  H       1.00   -0.290375316    4.083471388    3.268886045
  15  H       1.00   -3.250536804   -2.504170574    3.187004212
  16  H       1.00   -3.250536804    2.504170574    3.187004212
  17  H       1.00   -1.405294833   -2.422402125    5.964693745
  18  H       1.00   -1.405294833    2.422402125    5.964693745

 Bond lengths in Bohr (Angstrom)

 1-2  2.897082430  1-5  2.069901355  1-6  2.069042560  1-7  2.069042560  2-3  2.724447609
     ( 1.533070000)     ( 1.095344626)     ( 1.094890171)     ( 1.094890171)     ( 1.441715587)

  2-11  2.905954351   2-12  2.905954351   3- 4  2.668995640   4- 8  2.067212379   4- 9  2.078624355
       ( 1.537764818)       ( 1.537764818)       ( 1.412371669)       ( 1.093921681)       ( 1.099960639)

  4-10  2.078624355  11-13  2.070081404  11-15  2.070524757  11-17  2.070111596  12-14  2.070081404
       ( 1.099960639)       ( 1.095439904)       ( 1.095674516)       ( 1.095455880)       ( 1.095439904)

 12-16  2.070524757  12-18  2.070111596
       ( 1.095674516)       ( 1.095455880)

 Bond angles

  1- 2- 3  103.23196371   1- 2-11  110.12706952   1- 2-12  110.12706952   2- 1- 5  110.95650426

  2- 1- 6  110.20481748   2- 1- 7  110.20481748   2- 3- 4  117.98647004   2-11-13  110.26679927

  2-11-15  110.37287188   2-11-17  112.08316935   2-12-14  110.26679927   2-12-16  110.37287188

  2-12-18  112.08316935   3- 2-11  111.07703285   3- 2-12  111.07703285   3- 4- 8  106.07765410

  3- 4- 9  112.87219182   3- 4-10  112.87219182   5- 1- 6  108.65976572   5- 1- 7  108.65976572

  6- 1- 7  108.08288210   8- 4- 9  108.20190897   8- 4-10  108.20190897   9- 4-10  108.40564999

 11- 2-12  110.95103964  13-11-15  108.29648994  13-11-17  108.35544687  14-12-16  108.29648994

 14-12-18  108.35544687  15-11-17  107.33851825  16-12-18  107.33851825

 NUCLEAR CHARGE:                   50
 NUMBER OF PRIMITIVE AOS:         234
 NUMBER OF SYMMETRY AOS:          228
 NUMBER OF CONTRACTIONS:          144   ( 144A   )
 NUMBER OF CORE ORBITALS:           6   (   6A   )
 NUMBER OF VALENCE ORBITALS:       36   (  36A   )


 NUCLEAR REPULSION ENERGY  270.15500869


 Eigenvalues of metric

         1 0.176E-02 0.508E-02 0.513E-02 0.102E-01 0.124E-01 0.215E-01 0.221E-01 0.252E-01


 Contracted 2-electron integrals neglected if value below      1.0D-11
 AO integral compression algorithm  1   Integral accuracy      1.0D-11

     186.384 MB (compressed) written to integral file ( 41.3%)


 NUMBER OF SORTED TWO-ELECTRON INTEGRALS:   54502020.     BUFFER LENGTH:  32768
 NUMBER OF SEGMENTS:   4  SEGMENT LENGTH:   15999503      RECORD LENGTH: 524288

 Memory used in sort:      16.56 MW

 SORT1 READ    56333432. AND WROTE    45703433. INTEGRALS IN    132 RECORDS. CPU TIME:     0.72 SEC, REAL TIME:     1.40 SEC
 SORT2 READ    45703433. AND WROTE    54502020. INTEGRALS IN    711 RECORDS. CPU TIME:     1.09 SEC, REAL TIME:     1.42 SEC

 FILE SIZES:   FILE 1:   217.4 MBYTE,  FILE 4:   553.7 MBYTE,   TOTAL:    771.1 MBYTE

 OPERATOR DM      FOR CENTER  0  COORDINATES:    0.000000    0.000000    0.000000


 **********************************************************************************************************************************
 DATASETS  * FILE   NREC   LENGTH (MB)   RECORD NAMES
              1      19      194.45       500      610      700      900      950      970     1000      129      960     1100   
                                          VAR    BASINP    GEOM    SYMINP    ZMAT    AOBASIS   BASIS     P2S    ABASIS      S 
                                         1400     1410     1200     1210     1080     1600     1650     1300     1700   
                                           T        V       H0       H01     AOSYM     SMH    MOLCAS    ERIS     OPER   

 PROGRAMS   *        TOTAL       INT
 CPU TIMES  *         7.28      7.14
 REAL TIME  *         9.57 SEC
 DISK USED  *       771.70 MB      
 **********************************************************************************************************************************

 Density functional group BH-LYP=B88+LYP
 Functional: B88(Automatically generated (new) B88)                            Gradient terms: 1
 Functional: LYP(Automatically generated (new) LYP)                            Gradient terms: 1
 Use grid at  1800.2


 Exact exchange will be calculated, factor:  0.5000

 Functional: B88                       Factor:  0.5000
 Functional: LYP                       Factor:  1.0000

 Generated new metagrid on record  1800.2 with target accuracy 1.0D-06 and 66012 points in CPU time    1.9
 Computed new grid on record 1800.1 in CPU time    2.2
  118710 words reserved for DFT integration

 PROGRAM * UKS-SCF (Unrestricted Kohn-Sham)     Authors: W. Meyer, H.-J. Werner, P.J. Knowles, 1993

 NUMBER OF ELECTRONS:      25+   25-    SPACE SYMMETRY=1    SPIN SYMMETRY: Singlet 
 CONVERGENCE THRESHOLDS:    1.00E-05 (Density)    1.00E-06 (Energy)
 MAX. NUMBER OF ITERATIONS:       60
 INTERPOLATION TYPE:            DIIS
 INTERPOLATION STEPS:              2 (START)      1 (STEP)
 LEVEL SHIFTS:                 -0.20 (ALPHA)  -0.20 (BETA) 



 Use fine grid record 1800.2 for energy threshold  1.0D-06
 Orbital guess generated from atomic densities. Full valence occupancy:   25

 Molecular orbital dump at record        2200.2

 Initial alpha occupation  25
 Initial beta  occupation  25

 ITERATION    DDIFF          GRAD             ENERGY        2-EL.EN.            DIPOLE MOMENTS         DIIS
    1      0.000D+00      0.000D+00      -272.47970861    773.543466   -0.72859    0.00000    0.63126    0
    2      0.614D-02      0.320D-02      -272.58909261    761.456709   -0.41820    0.00000    0.32955    1
    3      0.162D-02      0.993D-03      -272.59753951    763.410577   -0.43118    0.00000    0.37540    2
    4      0.777D-03      0.272D-03      -272.59886281    763.148942   -0.39367    0.00000    0.35758    3
    5      0.493D-03      0.124D-03      -272.59919051    763.103032   -0.39055    0.00000    0.35990    4
    6      0.203D-03      0.279D-04      -272.59921374    763.083312   -0.38674    0.00000    0.36083    5
    7      0.359D-04      0.494D-05      -272.59921443    763.079966   -0.38695    0.00000    0.36135    6
    8      0.561D-05      0.152D-05      -272.59921447    763.081316   -0.38671    0.00000    0.36148    6
    9      0.249D-05      0.535D-06      -272.59921448    763.081293   -0.38665    0.00000    0.36150    6

 Final alpha occupancy:  25
 Final beta  occupancy:  25

 !UKS STATE 1.1 Energy               -272.599214476404
 Nuclear energy                       270.15500869
 One-electron energy                 -903.46520967
 Two-electron energy                  381.54064646
 Density functional                   -20.82965996     B88=-38.39999598 LYP= -1.62966197
 Virial quotient                       -1.01075498
 !UKS STATE 1.1 Dipole moment          -0.38665187     0.00000000     0.36150012
 Dipole moment /Debye                  -0.98270667     0.00000000     0.91878146

 Orbital energies for positive spin:

         1.1          2.1          3.1          4.1          5.1          6.1          7.1          8.1          9.1         10.1
    -19.667449   -10.645181   -10.630699   -10.581961   -10.581947   -10.575734    -1.140997    -0.897953    -0.788427    -0.783394

        11.1         12.1         13.1         14.1         15.1         16.1         17.1         18.1         19.1         20.1
     -0.757670    -0.625766    -0.554032    -0.532987    -0.532891    -0.498237    -0.479891    -0.462680    -0.445704    -0.435772

        21.1         22.1         23.1         24.1         25.1         26.1         27.1
     -0.428025    -0.403920    -0.403462    -0.359447    -0.318623     0.086794     0.121349

 Orbital energies for negative spin:

         1.1          2.1          3.1          4.1          5.1          6.1          7.1          8.1          9.1         10.1
    -19.667449   -10.645181   -10.630699   -10.581961   -10.581947   -10.575734    -1.140997    -0.897953    -0.788427    -0.783394

        11.1         12.1         13.1         14.1         15.1         16.1         17.1         18.1         19.1         20.1
     -0.757670    -0.625766    -0.554032    -0.532987    -0.532891    -0.498237    -0.479891    -0.462680    -0.445704    -0.435772

        21.1         22.1         23.1         24.1         25.1         26.1         27.1
     -0.428025    -0.403920    -0.403462    -0.359447    -0.318623     0.086794     0.121349

 HOMO     25.1    -0.318623 =      -8.6702eV
 LUMO     26.1     0.086794 =       2.3618eV
 LUMO-HOMO         0.405416 =      11.0319eV

 EXPECTATION VALUE OF S**2:            -0.00000000

 Natural orbitals saved to record    2200.2 (Orbital set 3)

 Orbital spaces for UNO-CAS (Min. occupation: 0.020  Max. occupation: 1.980):

 Closed:       25
 Active:        0


 **********************************************************************************************************************************
 DATASETS  * FILE   NREC   LENGTH (MB)   RECORD NAMES
              1      20      196.57       500      610      700      900      950      970     1000      129      960     1100   
                                          VAR    BASINP    GEOM    SYMINP    ZMAT    AOBASIS   BASIS     P2S    ABASIS      S 
                                         1400     1410     1200     1210     1080     1600     1650     1300     1700     1800   
                                           T        V       H0       H01     AOSYM     SMH    MOLCAS    ERIS     OPER     GRID   

              2       5        3.91       700     1000      520     1800     2200   
                                         GEOM     BASIS   MCVARS    GRID      UKS  

 PROGRAMS   *        TOTAL       UKS       INT
 CPU TIMES  *        43.90     36.62      7.14
 REAL TIME  *        50.91 SEC
 DISK USED  *       771.70 MB      
 **********************************************************************************************************************************


 PROGRAM * Intrinsic Basis Bonding Analysis (IBBA)          Author: G. Knizia

 Molecular orbitals read from record     2200.2  Type=UKS/ALPHA (state 1.1)
 Fock matrix read from record            2200.2  Type=UKS/TOTAL (state 1.1)
 Orbital energies read from record       2200.2  Type=UKS/ALPHA (state 1.1)
 Density matrix read from record         2200.2  Type=UKS/CHARGE (state 1.1)

 Number of core orbitals:           6 (   6 )
 Number of closed-shell orbitals:  19 (  19 )

 Basis set MINAO-AUTO-PP generated.      Number of basis functions:   42 

 Polarized AO type:                A = (O Ot + (1-O)(1-Ot)) P12
 Orthogonalization method:         Symmetric (Loewdin)
 Localization functional:          L = sum[A,i] <i|n_A|i>^4 -> max

 Localization group 1:  25 orbitals, occupancy  2.000
 Iterative localization: IB/PM,    7 iter; Final gradient 0.15E-08

 Bond order analysis:       [THRPRINT= 0.020]

   CEN ATOM   CEN ATOM     WIBERG.BO      RENORM.BO
     1   C  -   2   C       0.996413       0.996119
     1   C  -   5   H       0.968525       0.987232
     1   C  -   7   H       0.963997       0.983996
     1   C  -   6   H       0.963997       0.983996

     2   C  -   1   C       0.996413       0.996119
     2   C  -  12   C       0.992762       0.975919
     2   C  -  11   C       0.992762       0.975919
     2   C  -   3   O       0.921490       0.944162

     3   O  -   4   C       0.979697       1.013378
     3   O  -   2   C       0.921490       0.944162
     3   O  -   9   H       0.029187       0.017066
     3   O  -  10   H       0.029187       0.017066
     3   O  -  12   C       0.022831       0.011871
     3   O  -  11   C       0.022831       0.011871

     4   C  -   3   O       0.979697       1.013378
     4   C  -   8   H       0.960876       0.980264
     4   C  -   9   H       0.955933       0.945783
     4   C  -  10   H       0.955933       0.945783

     5   H  -   1   C       0.968525       0.987232

     6   H  -   1   C       0.963997       0.983996

     7   H  -   1   C       0.963997       0.983996

     8   H  -   4   C       0.960876       0.980264

     9   H  -   4   C       0.955933       0.945783
     9   H  -   3   O       0.029187       0.017066

    10   H  -   4   C       0.955933       0.945783
    10   H  -   3   O       0.029187       0.017066

    11   C  -   2   C       0.992762       0.975919
    11   C  -  17   H       0.966854       0.983818
    11   C  -  15   H       0.965191       0.988381
    11   C  -  13   H       0.964299       0.983978
    11   C  -   3   O       0.022831       0.011871

    12   C  -   2   C       0.992762       0.975919
    12   C  -  18   H       0.966854       0.983818
    12   C  -  16   H       0.965191       0.988381
    12   C  -  14   H       0.964299       0.983978
    12   C  -   3   O       0.022831       0.011871

    13   H  -  11   C       0.964299       0.983978

    14   H  -  12   C       0.964299       0.983978

    15   H  -  11   C       0.965191       0.988381

    16   H  -  12   C       0.965191       0.988381

    17   H  -  11   C       0.966854       0.983818

    18   H  -  12   C       0.966854       0.983818


 Valency analysis:

   CEN ATOM   TOT.VALENCE
     1   C       3.945126
     2   C       3.928902
     3   O       2.064038
     4   C       3.872628
     5   H       0.985925
     6   H       0.982750
     7   H       0.982750
     8   H       0.979772
     9   H       0.988779
    10   H       0.988779
    11   C       3.945250
    12   C       3.945250
    13   H       0.982969
    14   H       0.982969
    15   H       0.983740
    16   H       0.983740
    17   H       0.985555
    18   H       0.985555

 Total charge composition:

   CEN ATOM         s          p       ELECTRONS ->P.CHARGE
     1   C       3.02182    3.35353      6.37535   -0.37535
     2   C       2.92388    2.81519      5.73907    0.26093
     3   O       3.59825    4.83399      8.43224   -0.43224
     4   C       3.00830    3.14751      6.15581   -0.15581
     5   H       0.88136                 0.88136    0.11864
     6   H       0.86866                 0.86866    0.13134
     7   H       0.86866                 0.86866    0.13134
     8   H       0.85778                 0.85778    0.14222
     9   H       0.89407                 0.89407    0.10593
    10   H       0.89407                 0.89407    0.10593
    11   C       3.02205    3.37262      6.39467   -0.39467
    12   C       3.02205    3.37262      6.39467   -0.39467
    13   H       0.86950                 0.86950    0.13050
    14   H       0.86950                 0.86950    0.13050
    15   H       0.87249                 0.87249    0.12751
    16   H       0.87249                 0.87249    0.12751
    17   H       0.87981                 0.87981    0.12019
    18   H       0.87981                 0.87981    0.12019

 Total charge composition, AO contributions:

   CEN ATOM SHL      SPHERICAL COMPONENTS
     1   C  1s       1.99066
     1   C  2s       1.03116
     1   C  2p       1.15012    1.16415    1.03926

     2   C  1s       1.99237
     2   C  2s       0.93150
     2   C  2p       0.78710    1.01348    1.01461

     3   O  1s       1.99715
     3   O  2s       1.60110
     3   O  2p       1.44905    1.92392    1.46102

     4   C  1s       1.99133
     4   C  2s       1.01697
     4   C  2p       1.15032    1.15611    0.84107

     5   H  1s       0.88136

     6   H  1s       0.86866

     7   H  1s       0.86866

     8   H  1s       0.85778

     9   H  1s       0.89407

    10   H  1s       0.89407

    11   C  1s       1.99071
    11   C  2s       1.03134
    11   C  2p       1.13713    1.09282    1.14267

    12   C  1s       1.99071
    12   C  2s       1.03134
    12   C  2p       1.13713    1.09282    1.14267

    13   H  1s       0.86950

    14   H  1s       0.86950

    15   H  1s       0.87249

    16   H  1s       0.87249

    17   H  1s       0.87981

    18   H  1s       0.87981

 Summary of localized orbital composition:   [THRPRINT= 0.020]

   ORB  GRP  ORB.ENERGY      CENTERS/CHARGES
     1   1   -19.513977      O  3   2.000
     2   1   -10.550498      C  2   2.000
     3   1   -10.517106      C  4   2.000
     4   1   -10.463150      C 12   2.000
     5   1   -10.463150      C 11   2.000
     6   1   -10.456274      C  1   2.000
     7   1    -0.851286      O  3   1.256   C  4   0.737
     8   1    -0.824357      O  3   1.282   C  2   0.696   (other: 0.022)
     9   1    -0.652314      C 11   1.008   C  2   0.978
    10   1    -0.652314      C 12   1.008   C  2   0.978
    11   1    -0.648421      C  1   0.990   C  2   0.990   (other: 0.020)
    12   1    -0.634069      O  3   1.966   (other: 0.034)
    13   1    -0.594003      C  4   1.122   H  9   0.877
    14   1    -0.594003      C  4   1.122   H 10   0.877
    15   1    -0.590178      C  4   1.141   H  8   0.852
    16   1    -0.576934      C 11   1.121   H 15   0.865
    17   1    -0.576934      C 12   1.121   H 16   0.865
    18   1    -0.575677      C 12   1.118   H 18   0.873
    19   1    -0.575677      C 11   1.118   H 17   0.873
    20   1    -0.572151      C  1   1.114   H  5   0.875
    21   1    -0.571062      C 12   1.128   H 14   0.862
    22   1    -0.571062      C 11   1.128   H 13   0.862
    23   1    -0.564906      C  1   1.129   H  7   0.862
    24   1    -0.564906      C  1   1.129   H  6   0.862
    25   1    -0.378382      O  3   1.924   (other: 0.076)

 Localized orbitals saved to record      2200.2  (orbital set 4)


 **********************************************************************************************************************************
 DATASETS  * FILE   NREC   LENGTH (MB)   RECORD NAMES
              1      20      196.57       500      610      700      900      950      970     1000      129      960     1100   
                                          VAR    BASINP    GEOM    SYMINP    ZMAT    AOBASIS   BASIS     P2S    ABASIS      S 
                                         1400     1410     1200     1210     1080     1600     1650     1300     1700     1800   
                                           T        V       H0       H01     AOSYM     SMH    MOLCAS    ERIS     OPER     GRID   

              2       5        4.08       700     1000      520     1800     2200   
                                         GEOM     BASIS   MCVARS    GRID      UKS  

 PROGRAMS   *        TOTAL      IBBA       UKS       INT
 CPU TIMES  *        43.96      0.06     36.62      7.14
 REAL TIME  *        51.10 SEC
 DISK USED  *       771.70 MB      
 **********************************************************************************************************************************
 Molecular orbitals read from record     2200.2  Type=UKS/LOCAL(IBO)  
 Occupation numbers read from record     2200.2  Type=UKS/LOCAL(IBO)  
 Orbital energies read from record       2200.2  Type=UKS/LOCAL(IBO)  
 Redundancy group numbers read from rec  2200.2  Type=UKS/BETA (state 1.1)

 IBBA/SVP energy=      0.000000000000

        UKS-SCF 
   -272.59921448
 **********************************************************************************************************************************
 Molpro calculation terminated
