
 Primary working directories    : /local
 Secondary working directories  : /local
 Wavefunction directory         : /local/
 Main file repository           : /local/

 SHA1      : b4a5b34a9e711420743f49e6833241d17c61fb3c
 NAME      : 2099.9.b4a5b34
 ARCHNAME  : linux/x86_64_openmp
 FC        : /cm/shared/languages/GCC-6.1/bin/gfortran
 BLASLIB   : -lblas
 id        : simonbennie

 Nodes     nprocs
 node45-011    1

 Using customized tuning parameters: mindgm=1; mindgv=20; mindgc=4; mindgr=1; noblas=0; minvec=7
 default implementation of scratch files=df  

 memory,500,m
 geomtyp=xyz
 nosym
 noorient
 geometry={
 C         -1.53233        0.02247        0.00000
 C         -0.00192        0.01421        0.00000
 O          0.37239        1.40356        0.00000
 H          1.34248        1.44036        0.00000
 H         -1.92991       -0.99819        0.00000
 H         -1.90797        0.54382       -0.88653
 H         -1.90797        0.54382        0.88653
 C          0.54303       -0.66466       -1.26580
 C          0.54303       -0.66466        1.26580
 H          0.17836       -0.14752       -2.15943
 H          0.17836       -0.14752        2.15943
 H          0.23752       -1.71600       -1.32280
 H          0.23752       -1.71600        1.32280
 H          1.64084       -0.63767       -1.28032
 H          1.64084       -0.63767        1.28032
 }
 basis={ default,qzvp }
 {uks,MM06-L,direct;wf,42,1,0}
 {ibba,bonds=1}

 Variables initialized (895), CPU time= 0.01 sec
 Commands  initialized (725), CPU time= 0.01 sec, 591 directives.
 Default parameters read. Elapsed time= 3.79 sec

 Checking input...
 Passed
1


                                         ***  PROGRAM SYSTEM MOLPRO  ***
                                       Copyright, TTI GmbH Stuttgart, 2015
                                    Version 2099.9 linked May 26 2017 16:03:21


 **********************************************************************************************************************************
 LABEL *                                                                                 
  64 bit serial version                                                                  DATE: 12-Jun-17          TIME: 17:46:54  
 **********************************************************************************************************************************

 SHA1:             b4a5b34a9e711420743f49e6833241d17c61fb3c
 **********************************************************************************************************************************
 SETTING GEOMTYP        =    XYZ

 Variable memory set to  500000000 words,  buffer space 

 ZSYMEL=NOSYM

 SETTING BASIS          =    QZVP


 Recomputing integrals since basis changed


 Using spherical harmonics

 Library entry C      S def2-QZVP            selected for orbital group  1
 Library entry C      P def2-QZVP            selected for orbital group  1
 Library entry C      D def2-QZVP            selected for orbital group  1
 Library entry C      F def2-QZVP            selected for orbital group  1
 Library entry C      G def2-QZVP            selected for orbital group  1
 Library entry O      S def2-QZVP            selected for orbital group  2
 Library entry O      P def2-QZVP            selected for orbital group  2
 Library entry O      D def2-QZVP            selected for orbital group  2
 Library entry O      F def2-QZVP            selected for orbital group  2
 Library entry O      G def2-QZVP            selected for orbital group  2
 Library entry H      S def2-QZVP            selected for orbital group  3
 Library entry H      P def2-QZVP            selected for orbital group  3
 Library entry H      D def2-QZVP            selected for orbital group  3
 Library entry H      F def2-QZVP            selected for orbital group  3


 PROGRAM * SEWARD (Integral evaluation for generally contracted gaussian basis sets)     Author: Roland Lindh, 1990

 Geometry written to block  1 of record 700


 Point group  C1  



 ATOMIC COORDINATES

 NR  ATOM    CHARGE       X              Y              Z

   1  C       6.00   -2.895684032    0.042462146    0.000000000
   2  C       6.00   -0.003628274    0.026853008    0.000000000
   3  O       8.00    0.703715112    2.652343999    0.000000000
   4  H       1.00    2.536919528    2.721885921    0.000000000
   5  H       1.00   -3.647001345   -1.886305720    0.000000000
   6  H       1.00   -3.605540754    1.027670861   -1.675298901
   7  H       1.00   -3.605540754    1.027670861    1.675298901
   8  C       6.00    1.026177977   -1.256025366   -2.392015328
   9  C       6.00    1.026177977   -1.256025366    2.392015328
  10  H       1.00    0.337051552   -0.278772398   -4.080731285
  11  H       1.00    0.337051552   -0.278772398    4.080731285
  12  H       1.00    0.448847749   -3.242770030   -2.499729718
  13  H       1.00    0.448847749   -3.242770030    2.499729718
  14  H       1.00    3.100738214   -1.205021658   -2.419454152
  15  H       1.00    3.100738214   -1.205021658    2.419454152

 Bond lengths in Bohr (Angstrom)

 1-2  2.892097881  1-5  2.069933136  1-6  2.069096224  1-7  2.069096224  2-3  2.719106031
     ( 1.530432290)     ( 1.095361444)     ( 1.094918569)     ( 1.094918569)     ( 1.438888946)

  2- 8  2.903104402   2- 9  2.903104402   3- 4  1.834522965   8-10  2.069222119   8-12  2.071730422
       ( 1.536256691)       ( 1.536256691)       ( 0.970787746)       ( 1.094985190)       ( 1.096312526)

  8-14  2.075368508   9-11  2.069222119   9-13  2.071730422   9-15  2.075368508
       ( 1.098237719)       ( 1.094985190)       ( 1.096312526)       ( 1.098237719)

 Bond angles

  1-2-3  104.76902697   1-2-8  110.92255387   1-2-9  110.92255387   2-1-5  110.97328220

  2- 1- 6  110.22090701   2- 1- 7  110.22090701   2- 3- 4  107.25071562   2- 8-10  110.21836376

  2- 8-12  111.57747468   2- 8-14  110.77023896   2- 9-11  110.21836376   2- 9-13  111.57747468

  2- 9-15  110.77023896   3- 2- 8  109.53648747   3- 2- 9  109.53648747   5- 1- 6  108.61190457

  5- 1- 7  108.61190457   6- 1- 7  108.12870271   8- 2- 9  110.96453384  10- 8-12  108.52192632

 10- 8-14  108.08997829  11- 9-13  108.52192632  11- 9-15  108.08997829  12- 8-14  107.54424578

 13- 9-15  107.54424578

 NUCLEAR CHARGE:                   42
 NUMBER OF PRIMITIVE AOS:         840
 NUMBER OF SYMMETRY AOS:          715
 NUMBER OF CONTRACTIONS:          585   ( 585A   )
 NUMBER OF CORE ORBITALS:           5   (   5A   )
 NUMBER OF VALENCE ORBITALS:       30   (  30A   )


 NUCLEAR REPULSION ENERGY  198.77359127


 Eigenvalues of metric

         1 0.447E-04 0.459E-04 0.470E-04 0.743E-04 0.823E-04 0.917E-04 0.943E-04 0.107E-03


 Contracted 2-electron integrals neglected if value below      1.0D-12
 AO integral compression algorithm  1   Integral accuracy      1.0D-12

     40752.906 MB (compressed) written to integral file ( 33.4%)


 NUMBER OF SORTED TWO-ELECTRON INTEGRALS:14689922715.     BUFFER LENGTH:  32768
 NUMBER OF SEGMENTS: 184  SEGMENT LENGTH:   79999773      RECORD LENGTH: 262144

 Memory used in sort:      80.29 MW

 SORT1 READ 15248138275. AND WROTE 10587813328. INTEGRALS IN  60679 RECORDS. CPU TIME:   190.09 SEC, REAL TIME:  3589.10 SEC
 SORT2 READ 10587813328. AND WROTE 14689922715. INTEGRALS IN 155460 RECORDS. CPU TIME:   313.77 SEC, REAL TIME:  4514.10 SEC

 FILE SIZES:   FILE 1: 40795.6 MBYTE,  FILE 4:127253.1 MBYTE,   TOTAL: 168048.8 MBYTE

 OPERATOR DM      FOR CENTER  0  COORDINATES:    0.000000    0.000000    0.000000


 **********************************************************************************************************************************
 DATASETS  * FILE   NREC   LENGTH (MB)   RECORD NAMES
              1      19    37754.71       500      610      700      900      950      970     1000      129      960     1100   
                                          VAR    BASINP    GEOM    SYMINP    ZMAT    AOBASIS   BASIS     P2S    ABASIS      S 
                                         1400     1410     1200     1210     1080     1600     1650     1300     1700   
                                           T        V       H0       H01     AOSYM     SMH    MOLCAS    ERIS     OPER   

 PROGRAMS   *        TOTAL       INT
 CPU TIMES  *      1172.29   1172.14
 REAL TIME  *      8932.56 SEC
 DISK USED  *       168.05 GB      
 **********************************************************************************************************************************

 Density functional group MM06-L=M06LX+M06LC
 Functional: M06LX(Automatically generated (new) M06LX)                        Gradient terms: 2
 Functional: M06LC(Automatically generated (new) M06LC)                        Gradient terms: 2
 Use grid at  1800.2

 Functional: M06LX                     Factor:  1.0000
 Functional: M06LC                     Factor:  1.0000

 Generated new metagrid on record  1800.2 with target accuracy 1.0D-06 and 58228 points in CPU time    1.7
 Computed new grid on record 1800.1 in CPU time    1.9
  914914 words reserved for DFT integration

 PROGRAM * UKS-SCF (Unrestricted Kohn-Sham)     Authors: W. Meyer, H.-J. Werner, P.J. Knowles, 1993

 NUMBER OF ELECTRONS:      21+   21-    SPACE SYMMETRY=1    SPIN SYMMETRY: Singlet 
 CONVERGENCE THRESHOLDS:    1.00E-05 (Density)    1.00E-06 (Energy)
 MAX. NUMBER OF ITERATIONS:       60
 INTERPOLATION TYPE:            DIIS
 INTERPOLATION STEPS:              2 (START)      1 (STEP)
 LEVEL SHIFTS:                 -0.20 (ALPHA)  -0.20 (BETA) 



 Use fine grid record 1800.2 for energy threshold  1.0D-06
 Orbital guess generated from atomic densities. Full valence occupancy:   21

 Molecular orbital dump at record        2200.2

 Initial alpha occupation  21
 Initial beta  occupation  21

 ITERATION    DDIFF          GRAD             ENERGY        2-EL.EN.            DIPOLE MOMENTS         DIIS
    1      0.000D+00      0.000D+00      -233.50303635    638.364893    0.66907   -0.78801    0.00000    0
    2      0.486D-02      0.123D-02      -233.69856109    616.241454    0.19902   -0.42390    0.00000    1
    3      0.119D-02      0.746D-03      -233.74946715    622.348454    0.34261   -0.54352    0.00000    2
    4      0.548D-03      0.101D-03      -233.75072557    622.347707    0.33667   -0.50158    0.00000    3
    5      0.381D-03      0.415D-04      -233.75109875    622.251412    0.33637   -0.51120    0.00000    4
    6      0.143D-03      0.173D-04      -233.75117218    622.146714    0.33251   -0.50120    0.00000    5
    7      0.597D-04      0.822D-05      -233.75118213    622.157979    0.33272   -0.50388    0.00000    6
    8      0.197D-04      0.167D-05      -233.75118275    622.163952    0.33221   -0.50438    0.00000    7
    9      0.393D-05      0.700D-06      -233.75118283    622.158104    0.33207   -0.50425    0.00000    7
   10      0.171D-05      0.213D-06      -233.75118284    622.159138    0.33202   -0.50435    0.00000    7

 Final alpha occupancy:  21
 Final beta  occupancy:  21

 !UKS STATE 1.1 Energy               -233.751182844255
 Nuclear energy                       198.77359127
 One-electron energy                 -709.52224947
 Two-electron energy                  311.07956923
 Density functional                   -34.08209387     M06LX=-32.55886966 M06LC= -1.52322421
 Virial quotient                       -1.00528405
 !UKS STATE 1.1 Dipole moment           0.33202308    -0.50434880     0.00000000
 Dipole moment /Debye                   0.84386321    -1.28184282     0.00000000

 Orbital energies for positive spin:

         1.1          2.1          3.1          4.1          5.1          6.1          7.1          8.1          9.1         10.1
    -18.959090   -10.110671   -10.041969   -10.041968   -10.037012    -0.986023    -0.751298    -0.656089    -0.654977    -0.531087

        11.1         12.1         13.1         14.1         15.1         16.1         17.1         18.1         19.1         20.1
     -0.452796    -0.414842    -0.411935    -0.377333    -0.363674    -0.347988    -0.335304    -0.321739    -0.315889    -0.287517

        21.1         22.1         23.1
     -0.234039     0.016392     0.049984

 Orbital energies for negative spin:

         1.1          2.1          3.1          4.1          5.1          6.1          7.1          8.1          9.1         10.1
    -18.959088   -10.110671   -10.041968   -10.041967   -10.037011    -0.986019    -0.751297    -0.656088    -0.654976    -0.531087

        11.1         12.1         13.1         14.1         15.1         16.1         17.1         18.1         19.1         20.1
     -0.452795    -0.414842    -0.411934    -0.377332    -0.363674    -0.347988    -0.335304    -0.321738    -0.315889    -0.287515

        21.1         22.1         23.1
     -0.234036     0.016393     0.049986

 HOMO    -21.1    -0.234036 =      -6.3684eV
 LUMO     22.1     0.016392 =       0.4460eV
 LUMO-HOMO         0.250428 =       6.8145eV

 EXPECTATION VALUE OF S**2:             0.00000000

 Occupation number threshold for canonical orbitals:  1.999000 (occupied),  0.001000 (virtual)

 Number of pseudo-canonical orbitals per symmetry:   21
 Number of active natural orbitals per symmetry:      0

 Natural orbitals saved to record    2200.2 (Orbital set 3)

 Orbital spaces for UNO-CAS (Min. occupation: 0.020  Max. occupation: 1.980):

 Closed:       21
 Active:        0


 **********************************************************************************************************************************
 DATASETS  * FILE   NREC   LENGTH (MB)   RECORD NAMES
              1      20    37756.57       500      610      700      900      950      970     1000      129      960     1100   
                                          VAR    BASINP    GEOM    SYMINP    ZMAT    AOBASIS   BASIS     P2S    ABASIS      S 
                                         1400     1410     1200     1210     1080     1600     1650     1300     1700     1800   
                                           T        V       H0       H01     AOSYM     SMH    MOLCAS    ERIS     OPER     GRID   

              2       5       16.83       700     1000      520     1800     2200   
                                         GEOM     BASIS   MCVARS    GRID      UKS  

 PROGRAMS   *        TOTAL       UKS       INT
 CPU TIMES  *      3560.81   2388.51   1172.14
 REAL TIME  *     15107.01 SEC
 DISK USED  *       168.05 GB      
 **********************************************************************************************************************************


 PROGRAM * Intrinsic Basis Bonding Analysis (IBBA)          Author: G. Knizia

 Molecular orbitals read from record     2200.2  Type=UKS/ALPHA (state 1.1)
 Fock matrix read from record            2200.2  Type=UKS/TOTAL (state 1.1)
 Orbital energies read from record       2200.2  Type=UKS/ALPHA (state 1.1)
 Density matrix read from record         2200.2  Type=UKS/CHARGE (state 1.1)

 Number of core orbitals:           5 (   5 )
 Number of closed-shell orbitals:  16 (  16 )

 Basis set MINAO-AUTO-PP generated.      Number of basis functions:   35 

 Polarized AO type:                A = (O Ot + (1-O)(1-Ot)) P12
 Orthogonalization method:         Symmetric (Loewdin)
 Localization functional:          L = sum[A,i] <i|n_A|i>^4 -> max

 Localization group 1:  21 orbitals, occupancy  2.000
 Iterative localization: IB/PM,    7 iter; Final gradient 0.17E-08

 Bond order analysis:       [THRPRINT= 0.020]

   CEN ATOM   CEN ATOM     WIBERG.BO      RENORM.BO
     1   C  -   2   C       0.997065       0.993763
     1   C  -   5   H       0.964391       0.987543
     1   C  -   6   H       0.959895       0.981777
     1   C  -   7   H       0.959895       0.981777

     2   C  -   1   C       0.997065       0.993763
     2   C  -   9   C       0.995130       0.975437
     2   C  -   8   C       0.995130       0.975437
     2   C  -   3   O       0.928768       0.949284

     3   O  -   2   C       0.928768       0.949284
     3   O  -   4   H       0.859202       0.977649
     3   O  -   8   C       0.028227       0.014328
     3   O  -   9   C       0.028227       0.014328

     4   H  -   3   O       0.859202       0.977649

     5   H  -   1   C       0.964391       0.987543

     6   H  -   1   C       0.959895       0.981777

     7   H  -   1   C       0.959895       0.981777

     8   C  -   2   C       0.995130       0.975437
     8   C  -  14   H       0.963938       0.982457
     8   C  -  10   H       0.960271       0.981559
     8   C  -  12   H       0.959623       0.980597
     8   C  -   3   O       0.028227       0.014328

     9   C  -   2   C       0.995130       0.975437
     9   C  -  15   H       0.963938       0.982457
     9   C  -  11   H       0.960271       0.981559
     9   C  -  13   H       0.959623       0.980597
     9   C  -   3   O       0.028227       0.014328

    10   H  -   8   C       0.960271       0.981559

    11   H  -   9   C       0.960271       0.981559

    12   H  -   8   C       0.959623       0.980597

    13   H  -   9   C       0.959623       0.980597

    14   H  -   8   C       0.963938       0.982457

    15   H  -   9   C       0.963938       0.982457


 Valency analysis:

   CEN ATOM   TOT.VALENCE
     1   C       3.940392
     2   C       3.925510
     3   O       1.912005
     4   H       0.878393
     5   H       0.982190
     6   H       0.979793
     7   H       0.979793
     8   C       3.942488
     9   C       3.942488
    10   H       0.979825
    11   H       0.979825
    12   H       0.981598
    13   H       0.981598
    14   H       0.983711
    15   H       0.983711

 Total charge composition:

   CEN ATOM         s          p       ELECTRONS ->P.CHARGE
     1   C       3.05736    3.35744      6.41480   -0.41480
     2   C       2.94870    2.77348      5.72217    0.27783
     3   O       3.66935    4.91557      8.58493   -0.58493
     4   H       0.65128                 0.65128    0.34872
     5   H       0.86655                 0.86655    0.13345
     6   H       0.85785                 0.85785    0.14215
     7   H       0.85785                 0.85785    0.14215
     8   C       3.06366    3.36394      6.42761   -0.42761
     9   C       3.06366    3.36394      6.42761   -0.42761
    10   H       0.85796                 0.85796    0.14204
    11   H       0.85796                 0.85796    0.14204
    12   H       0.86435                 0.86435    0.13565
    13   H       0.86435                 0.86435    0.13565
    14   H       0.87237                 0.87237    0.12763
    15   H       0.87237                 0.87237    0.12763

 Total charge composition, AO contributions:

   CEN ATOM SHL      SPHERICAL COMPONENTS
     1   C  1s       1.99088
     1   C  2s       1.06648
     1   C  2p       1.03902    1.15375    1.16467

     2   C  1s       1.99256
     2   C  2s       0.95614
     2   C  2p       0.99721    0.77514    1.00113

     3   O  1s       1.99708
     3   O  2s       1.67227
     3   O  2p       1.47051    1.49045    1.95461

     4   H  1s       0.65128

     5   H  1s       0.86655

     6   H  1s       0.85785

     7   H  1s       0.85785

     8   C  1s       1.99099
     8   C  2s       1.07268
     8   C  2p       1.13691    1.13634    1.09069

     9   C  1s       1.99099
     9   C  2s       1.07268
     9   C  2p       1.13691    1.13634    1.09069

    10   H  1s       0.85796

    11   H  1s       0.85796

    12   H  1s       0.86435

    13   H  1s       0.86435

    14   H  1s       0.87237

    15   H  1s       0.87237

 Summary of localized orbital composition:   [THRPRINT= 0.020]

   ORB  GRP  ORB.ENERGY      CENTERS/CHARGES
     1   1   -18.790873      O  3   2.000
     2   1   -10.018743      C  2   2.000
     3   1    -9.926018      C  9   2.000
     4   1    -9.926018      C  8   2.000
     5   1    -9.920240      C  1   2.000
     6   1    -0.720236      O  3   1.350   H  4   0.640
     7   1    -0.674578      O  3   1.295   C  2   0.686
     8   1    -0.562783      O  3   1.982
     9   1    -0.539514      C  1   0.996   C  2   0.981   (other: 0.023)
    10   1    -0.539501      C  8   1.011   C  2   0.974
    11   1    -0.539501      C  9   1.011   C  2   0.974
    12   1    -0.472814      C  8   1.131   H 12   0.855
    13   1    -0.472814      C  9   1.131   H 13   0.855
    14   1    -0.470775      C  9   1.123   H 15   0.865
    15   1    -0.470775      C  8   1.123   H 14   0.865
    16   1    -0.469088      C  1   1.127   H  5   0.860
    17   1    -0.466574      C  8   1.139   H 10   0.850
    18   1    -0.466574      C  9   1.139   H 11   0.850
    19   1    -0.461941      C  1   1.139   H  6   0.850
    20   1    -0.461941      C  1   1.139   H  7   0.850
    21   1    -0.262014      O  3   1.955   (other: 0.045)

 Localized orbitals saved to record      2200.2  (orbital set 4)


 **********************************************************************************************************************************
 DATASETS  * FILE   NREC   LENGTH (MB)   RECORD NAMES
              1      20    37756.57       500      610      700      900      950      970     1000      129      960     1100   
                                          VAR    BASINP    GEOM    SYMINP    ZMAT    AOBASIS   BASIS     P2S    ABASIS      S 
                                         1400     1410     1200     1210     1080     1600     1650     1300     1700     1800   
                                           T        V       H0       H01     AOSYM     SMH    MOLCAS    ERIS     OPER     GRID   

              2       5       19.57       700     1000      520     1800     2200   
                                         GEOM     BASIS   MCVARS    GRID      UKS  

 PROGRAMS   *        TOTAL      IBBA       UKS       INT
 CPU TIMES  *      3561.29      0.48   2388.51   1172.14
 REAL TIME  *     15109.14 SEC
 DISK USED  *       168.05 GB      
 **********************************************************************************************************************************
 Molecular orbitals read from record     2200.2  Type=UKS/LOCAL(IBO)  
 Occupation numbers read from record     2200.2  Type=UKS/LOCAL(IBO)  
 Orbital energies read from record       2200.2  Type=UKS/LOCAL(IBO)  
 Redundancy group numbers read from rec  2200.2  Type=UKS/BETA (state 1.1)

 IBBA/QZVP energy=      0.000000000000

        UKS-SCF 
   -233.75118284
 **********************************************************************************************************************************
 Molpro calculation terminated
