
 Primary working directories    : /local
 Secondary working directories  : /local
 Wavefunction directory         : /local/
 Main file repository           : /local/

 SHA1      : b4a5b34a9e711420743f49e6833241d17c61fb3c
 NAME      : 2099.9.b4a5b34
 ARCHNAME  : linux/x86_64_openmp
 FC        : /cm/shared/languages/GCC-6.1/bin/gfortran
 BLASLIB   : -lblas
 id        : simonbennie

 Nodes     nprocs
 node33-011    1

 Using customized tuning parameters: mindgm=1; mindgv=20; mindgc=4; mindgr=1; noblas=0; minvec=7
 default implementation of scratch files=df  

 memory,500,m
 geomtyp=xyz
 nosym
 noorient
 geometry={
 C         -1.53233        0.02247        0.00000
 C         -0.00192        0.01421        0.00000
 O          0.37239        1.40356        0.00000
 H          1.34248        1.44036        0.00000
 H         -1.92991       -0.99819        0.00000
 H         -1.90797        0.54382       -0.88653
 H         -1.90797        0.54382        0.88653
 C          0.54303       -0.66466       -1.26580
 C          0.54303       -0.66466        1.26580
 H          0.17836       -0.14752       -2.15943
 H          0.17836       -0.14752        2.15943
 H          0.23752       -1.71600       -1.32280
 H          0.23752       -1.71600        1.32280
 H          1.64084       -0.63767       -1.28032
 H          1.64084       -0.63767        1.28032
 }
 basis={ default,tzvp }
 {ks,PBE0,direct;wf,42,1,0}
 {ibba,bonds=1}

 Variables initialized (895), CPU time= 0.00 sec
 Commands  initialized (725), CPU time= 0.02 sec, 591 directives.
 Default parameters read. Elapsed time= 0.07 sec

 Checking input...
 Passed
1


                                         ***  PROGRAM SYSTEM MOLPRO  ***
                                       Copyright, TTI GmbH Stuttgart, 2015
                                    Version 2099.9 linked May 26 2017 16:03:21


 **********************************************************************************************************************************
 LABEL *                                                                                 
  64 bit serial version                                                                  DATE: 12-Jun-17          TIME: 19:35:57  
 **********************************************************************************************************************************

 SHA1:             b4a5b34a9e711420743f49e6833241d17c61fb3c
 **********************************************************************************************************************************
 SETTING GEOMTYP        =    XYZ

 Variable memory set to  500000000 words,  buffer space 

 ZSYMEL=NOSYM

 SETTING BASIS          =    TZVP


 Recomputing integrals since basis changed


 Using spherical harmonics

 Library entry C      S def2-TZVP            selected for orbital group  1
 Library entry C      P def2-TZVP            selected for orbital group  1
 Library entry C      D def2-TZVP            selected for orbital group  1
 Library entry C      F def2-TZVP            selected for orbital group  1
 Library entry O      S def2-TZVP            selected for orbital group  2
 Library entry O      P def2-TZVP            selected for orbital group  2
 Library entry O      D def2-TZVP            selected for orbital group  2
 Library entry O      F def2-TZVP            selected for orbital group  2
 Library entry H      S def2-TZVP            selected for orbital group  3
 Library entry H      P def2-TZVP            selected for orbital group  3


 PROGRAM * SEWARD (Integral evaluation for generally contracted gaussian basis sets)     Author: Roland Lindh, 1990

 Geometry written to block  1 of record 700


 Point group  C1  



 ATOMIC COORDINATES

 NR  ATOM    CHARGE       X              Y              Z

   1  C       6.00   -2.895684032    0.042462146    0.000000000
   2  C       6.00   -0.003628274    0.026853008    0.000000000
   3  O       8.00    0.703715112    2.652343999    0.000000000
   4  H       1.00    2.536919528    2.721885921    0.000000000
   5  H       1.00   -3.647001345   -1.886305720    0.000000000
   6  H       1.00   -3.605540754    1.027670861   -1.675298901
   7  H       1.00   -3.605540754    1.027670861    1.675298901
   8  C       6.00    1.026177977   -1.256025366   -2.392015328
   9  C       6.00    1.026177977   -1.256025366    2.392015328
  10  H       1.00    0.337051552   -0.278772398   -4.080731285
  11  H       1.00    0.337051552   -0.278772398    4.080731285
  12  H       1.00    0.448847749   -3.242770030   -2.499729718
  13  H       1.00    0.448847749   -3.242770030    2.499729718
  14  H       1.00    3.100738214   -1.205021658   -2.419454152
  15  H       1.00    3.100738214   -1.205021658    2.419454152

 Bond lengths in Bohr (Angstrom)

 1-2  2.892097881  1-5  2.069933136  1-6  2.069096224  1-7  2.069096224  2-3  2.719106031
     ( 1.530432290)     ( 1.095361444)     ( 1.094918569)     ( 1.094918569)     ( 1.438888946)

  2- 8  2.903104402   2- 9  2.903104402   3- 4  1.834522965   8-10  2.069222119   8-12  2.071730422
       ( 1.536256691)       ( 1.536256691)       ( 0.970787746)       ( 1.094985190)       ( 1.096312526)

  8-14  2.075368508   9-11  2.069222119   9-13  2.071730422   9-15  2.075368508
       ( 1.098237719)       ( 1.094985190)       ( 1.096312526)       ( 1.098237719)

 Bond angles

  1-2-3  104.76902697   1-2-8  110.92255387   1-2-9  110.92255387   2-1-5  110.97328220

  2- 1- 6  110.22090701   2- 1- 7  110.22090701   2- 3- 4  107.25071562   2- 8-10  110.21836376

  2- 8-12  111.57747468   2- 8-14  110.77023896   2- 9-11  110.21836376   2- 9-13  111.57747468

  2- 9-15  110.77023896   3- 2- 8  109.53648747   3- 2- 9  109.53648747   5- 1- 6  108.61190457

  5- 1- 7  108.61190457   6- 1- 7  108.12870271   8- 2- 9  110.96453384  10- 8-12  108.52192632

 10- 8-14  108.08997829  11- 9-13  108.52192632  11- 9-15  108.08997829  12- 8-14  107.54424578

 13- 9-15  107.54424578

 NUCLEAR CHARGE:                   42
 NUMBER OF PRIMITIVE AOS:         335
 NUMBER OF SYMMETRY AOS:          310
 NUMBER OF CONTRACTIONS:          215   ( 215A   )
 NUMBER OF CORE ORBITALS:           5   (   5A   )
 NUMBER OF VALENCE ORBITALS:       30   (  30A   )


 NUCLEAR REPULSION ENERGY  198.77359127


 Eigenvalues of metric

         1 0.262E-03 0.510E-03 0.539E-03 0.594E-03 0.697E-03 0.755E-03 0.210E-02 0.239E-02


 Contracted 2-electron integrals neglected if value below      1.0D-11
 AO integral compression algorithm  1   Integral accuracy      1.0D-11

     977.797 MB (compressed) written to integral file ( 41.7%)


 NUMBER OF SORTED TWO-ELECTRON INTEGRALS:  269595810.     BUFFER LENGTH:  32768
 NUMBER OF SEGMENTS:  17  SEGMENT LENGTH:   15999762      RECORD LENGTH: 524288

 Memory used in sort:      16.56 MW

 SORT1 READ   292827432. AND WROTE   238500613. INTEGRALS IN    690 RECORDS. CPU TIME:     3.64 SEC, REAL TIME:    10.48 SEC
 SORT2 READ   238500613. AND WROTE   269595810. INTEGRALS IN   3730 RECORDS. CPU TIME:     6.08 SEC, REAL TIME:    10.01 SEC

 FILE SIZES:   FILE 1:  1009.7 MBYTE,  FILE 4:  2894.1 MBYTE,   TOTAL:   3903.8 MBYTE

 OPERATOR DM      FOR CENTER  0  COORDINATES:    0.000000    0.000000    0.000000


 **********************************************************************************************************************************
 DATASETS  * FILE   NREC   LENGTH (MB)   RECORD NAMES
              1      19      926.27       500      610      700      900      950      970     1000      129      960     1100   
                                          VAR    BASINP    GEOM    SYMINP    ZMAT    AOBASIS   BASIS     P2S    ABASIS      S 
                                         1400     1410     1200     1210     1080     1600     1650     1300     1700   
                                           T        V       H0       H01     AOSYM     SMH    MOLCAS    ERIS     OPER   

 PROGRAMS   *        TOTAL       INT
 CPU TIMES  *        26.41     26.27
 REAL TIME  *        53.51 SEC
 DISK USED  *         3.90 GB      
 **********************************************************************************************************************************

 Density functional group PBE0=PBEX+PBEC
 Functional: PBEX(Automatically generated (new) PBEX)                          Gradient terms: 1
 Functional: PBEC(Automatically generated (new) PBEC)                          Gradient terms: 1
 Use grid at  1800.2


 Exact exchange will be calculated, factor:  0.2500

 Functional: PBEX                      Factor:  0.7500
 Functional: PBEC                      Factor:  1.0000

 Generated new metagrid on record  1800.2 with target accuracy 1.0D-06 and 54596 points in CPU time    1.6
 Computed new grid on record 1800.1 in CPU time    1.8
  175219 words reserved for DFT integration

 PROGRAM * RKS-SCF (Restricted closed shell Kohn-Sham)     Authors: W. Meyer, H.-J. Werner, P.J. Knowles, 1993

 NUMBER OF ELECTRONS:      21+   21-    SPACE SYMMETRY=1    SPIN SYMMETRY: Singlet 
 CONVERGENCE THRESHOLDS:    1.00E-05 (Density)    1.00E-06 (Energy)
 MAX. NUMBER OF ITERATIONS:       60
 INTERPOLATION TYPE:            DIIS
 INTERPOLATION STEPS:              2 (START)      1 (STEP)
 LEVEL SHIFTS:                  0.00 (CLOSED)  0.00 (OPEN) 



 Use fine grid record 1800.2 for energy threshold  1.0D-06
 Orbital guess generated from atomic densities. Full valence occupancy:   21

 Molecular orbital dump at record        2100.2

 Initial occupancy:  21

 ITERATION    DDIFF          GRAD             ENERGY        2-EL.EN.            DIPOLE MOMENTS         DIIS   ORB.
    1      0.000D+00      0.000D+00      -233.30496872    619.228679    0.69774   -0.81245    0.00000    0    start
    2      0.000D+00      0.672D-02      -233.23339310    589.240673   -0.11114   -0.06640    0.00000    1    diag
    3      0.865D-02      0.813D-02      -233.48373594    606.364539    0.37996   -0.58396    0.00000    2    diag
    4      0.561D-02      0.873D-03      -233.48586160    605.771588    0.35292   -0.46666    0.00000    3    diag
    5      0.474D-03      0.276D-03      -233.48608570    605.731341    0.35319   -0.51275    0.00000    4    diag
    6      0.148D-03      0.711D-04      -233.48610203    605.810246    0.35481   -0.50455    0.00000    5    diag
    7      0.380D-04      0.235D-04      -233.48610384    605.797888    0.35498   -0.50361    0.00000    6    diag
    8      0.892D-05      0.228D-05      -233.48610386    605.801409    0.35487   -0.50458    0.00000    7    diag
    9      0.226D-05      0.673D-06      -233.48610386    605.800718    0.35496   -0.50411    0.00000    0    orth

 Final occupancy:  21

 !RKS STATE 1.1 Energy               -233.486103861889
 Nuclear energy                       198.77359127
 One-electron energy                 -709.51321800
 Two-electron energy                  302.90035882
 SCF exchange energy                  -32.51085684     Factor= 0.2500
 Density functional                   -25.64683596     PBEX=-32.36989987 PBEC= -1.36941106
 Virial quotient                       -1.00555958
 !RKS STATE 1.1 Dipole moment           0.35496209    -0.50410879     0.00000000
 Dipole moment /Debye                   0.90216455    -1.28123283     0.00000000

 Orbital energies:

         1.1          2.1          3.1          4.1          5.1          6.1          7.1          8.1          9.1         10.1
    -19.197803   -10.281985   -10.211668   -10.211661   -10.206282    -1.043500    -0.810149    -0.711622    -0.710521    -0.584869

        11.1         12.1         13.1         14.1         15.1         16.1         17.1         18.1         19.1         20.1
     -0.503969    -0.466022    -0.463054    -0.424992    -0.409898    -0.390950    -0.377532    -0.367103    -0.359729    -0.331353

        21.1         22.1         23.1
     -0.284426     0.029520     0.076901

 HOMO     21.1    -0.284426 =      -7.7396eV
 LUMO     22.1     0.029520 =       0.8033eV
 LUMO-HOMO         0.313946 =       8.5429eV


 **********************************************************************************************************************************
 DATASETS  * FILE   NREC   LENGTH (MB)   RECORD NAMES
              1      20      928.02       500      610      700      900      950      970     1000      129      960     1100   
                                          VAR    BASINP    GEOM    SYMINP    ZMAT    AOBASIS   BASIS     P2S    ABASIS      S 
                                         1400     1410     1200     1210     1080     1600     1650     1300     1700     1800   
                                           T        V       H0       H01     AOSYM     SMH    MOLCAS    ERIS     OPER     GRID   

              2       5        3.96       700     1000      520     1800     2100   
                                         GEOM     BASIS   MCVARS    GRID      RKS  

 PROGRAMS   *        TOTAL        KS       INT
 CPU TIMES  *        86.58     60.17     26.27
 REAL TIME  *       122.09 SEC
 DISK USED  *         3.90 GB      
 **********************************************************************************************************************************


 PROGRAM * Intrinsic Basis Bonding Analysis (IBBA)          Author: G. Knizia

 Molecular orbitals read from record     2100.2  Type=RKS/CANONICAL (state 1.1)
 Fock matrix read from record            2100.2  Type=RKS/TOTAL (state 1.1)
 Orbital energies read from record       2100.2  Type=RKS/CANONICAL (state 1.1)
 Density matrix read from record         2100.2  Type=RKS/CHARGE (state 1.1)

 Number of core orbitals:           5 (   5 )
 Number of closed-shell orbitals:  16 (  16 )

 Basis set MINAO-AUTO-PP generated.      Number of basis functions:   35 

 Polarized AO type:                A = (O Ot + (1-O)(1-Ot)) P12
 Orthogonalization method:         Symmetric (Loewdin)
 Localization functional:          L = sum[A,i] <i|n_A|i>^4 -> max

 Localization group 1:  21 orbitals, occupancy  2.000
 Iterative localization: IB/PM,    7 iter; Final gradient 0.27E-08

 Bond order analysis:       [THRPRINT= 0.020]

   CEN ATOM   CEN ATOM     WIBERG.BO      RENORM.BO
     1   C  -   2   C       0.996546       0.993200
     1   C  -   5   H       0.962115       0.987257
     1   C  -   6   H       0.957194       0.981701
     1   C  -   7   H       0.957194       0.981701

     2   C  -   1   C       0.996546       0.993200
     2   C  -   9   C       0.995241       0.975726
     2   C  -   8   C       0.995241       0.975726
     2   C  -   3   O       0.934597       0.949632

     3   O  -   2   C       0.934597       0.949632
     3   O  -   4   H       0.860956       0.976841
     3   O  -   8   C       0.027315       0.013968
     3   O  -   9   C       0.027315       0.013968

     4   H  -   3   O       0.860956       0.976841

     5   H  -   1   C       0.962115       0.987257

     6   H  -   1   C       0.957194       0.981701

     7   H  -   1   C       0.957194       0.981701

     8   C  -   2   C       0.995241       0.975726
     8   C  -  14   H       0.961634       0.982336
     8   C  -  12   H       0.957971       0.981832
     8   C  -  10   H       0.957724       0.981601
     8   C  -   3   O       0.027315       0.013968

     9   C  -   2   C       0.995241       0.975726
     9   C  -  15   H       0.961634       0.982336
     9   C  -  13   H       0.957971       0.981832
     9   C  -  11   H       0.957724       0.981601
     9   C  -   3   O       0.027315       0.013968

    10   H  -   8   C       0.957724       0.981601

    11   H  -   9   C       0.957724       0.981601

    12   H  -   8   C       0.957971       0.981832

    13   H  -   9   C       0.957971       0.981832

    14   H  -   8   C       0.961634       0.982336

    15   H  -   9   C       0.961634       0.982336


 Valency analysis:

   CEN ATOM   TOT.VALENCE
     1   C       3.932709
     2   C       3.931757
     3   O       1.916491
     4   H       0.880217
     5   H       0.980634
     6   H       0.977879
     7   H       0.977879
     8   C       3.935475
     9   C       3.935475
    10   H       0.977902
    11   H       0.977902
    12   H       0.979787
    13   H       0.979787
    14   H       0.982265
    15   H       0.982265

 Total charge composition:

   CEN ATOM         s          p       ELECTRONS ->P.CHARGE
     1   C       3.04536    3.38404      6.42939   -0.42939
     2   C       2.93965    2.80456      5.74421    0.25579
     3   O       3.64887    4.92382      8.57270   -0.57270
     4   H       0.65390                 0.65390    0.34610
     5   H       0.86084                 0.86084    0.13916
     6   H       0.85127                 0.85127    0.14873
     7   H       0.85127                 0.85127    0.14873
     8   C       3.05142    3.39080      6.44221   -0.44221
     9   C       3.05142    3.39080      6.44221   -0.44221
    10   H       0.85135                 0.85135    0.14865
    11   H       0.85135                 0.85135    0.14865
    12   H       0.85783                 0.85783    0.14217
    13   H       0.85783                 0.85783    0.14217
    14   H       0.86683                 0.86683    0.13317
    15   H       0.86683                 0.86683    0.13317

 Total charge composition, AO contributions:

   CEN ATOM SHL      SPHERICAL COMPONENTS
     1   C  1s       1.99107
     1   C  2s       1.05429
     1   C  2p       1.04085    1.16542    1.17777

     2   C  1s       1.99271
     2   C  2s       0.94693
     2   C  2p       1.00700    0.78834    1.00921

     3   O  1s       1.99713
     3   O  2s       1.65175
     3   O  2p       1.47608    1.49081    1.95693

     4   H  1s       0.65390

     5   H  1s       0.86084

     6   H  1s       0.85127

     7   H  1s       0.85127

     8   C  1s       1.99117
     8   C  2s       1.06025
     8   C  2p       1.14701    1.14699    1.09680

     9   C  1s       1.99117
     9   C  2s       1.06025
     9   C  2p       1.14701    1.14699    1.09680

    10   H  1s       0.85135

    11   H  1s       0.85135

    12   H  1s       0.85783

    13   H  1s       0.85783

    14   H  1s       0.86683

    15   H  1s       0.86683

 Summary of localized orbital composition:   [THRPRINT= 0.020]

   ORB  GRP  ORB.ENERGY      CENTERS/CHARGES
     1   1   -19.035780      O  3   2.000
     2   1   -10.189458      C  2   2.000
     3   1   -10.095505      C  9   2.000
     4   1   -10.095505      C  8   2.000
     5   1   -10.089303      C  1   2.000
     6   1    -0.780178      O  3   1.348   H  4   0.643
     7   1    -0.736276      O  3   1.282   C  2   0.700
     8   1    -0.597767      O  3   1.982
     9   1    -0.590565      C  8   1.008   C  2   0.977
    10   1    -0.590565      C  9   1.008   C  2   0.977
    11   1    -0.589892      C  1   0.991   C  2   0.986   (other: 0.023)
    12   1    -0.520016      C  8   1.138   H 12   0.848
    13   1    -0.520016      C  9   1.138   H 13   0.848
    14   1    -0.518362      C  8   1.129   H 14   0.860
    15   1    -0.518362      C  9   1.129   H 15   0.860
    16   1    -0.515649      C  1   1.133   H  5   0.854
    17   1    -0.514106      C  9   1.146   H 11   0.843
    18   1    -0.514106      C  8   1.146   H 10   0.843
    19   1    -0.509384      C  1   1.146   H  6   0.843
    20   1    -0.509384      C  1   1.146   H  7   0.843
    21   1    -0.318910      O  3   1.957   (other: 0.043)

 Localized orbitals saved to record      2100.2  (orbital set 2)


 **********************************************************************************************************************************
 DATASETS  * FILE   NREC   LENGTH (MB)   RECORD NAMES
              1      20      928.02       500      610      700      900      950      970     1000      129      960     1100   
                                          VAR    BASINP    GEOM    SYMINP    ZMAT    AOBASIS   BASIS     P2S    ABASIS      S 
                                         1400     1410     1200     1210     1080     1600     1650     1300     1700     1800   
                                           T        V       H0       H01     AOSYM     SMH    MOLCAS    ERIS     OPER     GRID   

              2       5        4.33       700     1000      520     1800     2100   
                                         GEOM     BASIS   MCVARS    GRID      RKS  

 PROGRAMS   *        TOTAL      IBBA        KS       INT
 CPU TIMES  *        86.64      0.06     60.17     26.27
 REAL TIME  *       122.25 SEC
 DISK USED  *         3.90 GB      
 **********************************************************************************************************************************
 Molecular orbitals read from record     2100.2  Type=RKS/LOCAL(IBO)  
 Occupation numbers read from record     2100.2  Type=RKS/LOCAL(IBO)  
 Orbital energies read from record       2100.2  Type=RKS/LOCAL(IBO)  
 Redundancy group numbers read from rec  2100.2  Type=RKS/LOCAL(IBO)  

 IBBA/TZVP energy=      0.000000000000

        KS-SCF  
   -233.48610386
 **********************************************************************************************************************************
 Molpro calculation terminated
