
 Primary working directories    : /local
 Secondary working directories  : /local
 Wavefunction directory         : /local/
 Main file repository           : /local/

 SHA1      : b4a5b34a9e711420743f49e6833241d17c61fb3c
 NAME      : 2099.9.b4a5b34
 ARCHNAME  : linux/x86_64_openmp
 FC        : /cm/shared/languages/GCC-6.1/bin/gfortran
 BLASLIB   : -lblas
 id        : simonbennie

 Nodes     nprocs
 node44-015    1

 Using customized tuning parameters: mindgm=1; mindgv=20; mindgc=4; mindgr=1; noblas=0; minvec=7
 default implementation of scratch files=df  

 memory,500,m
 geomtyp=xyz
 nosym
 noorient
 geometry={
 C         -1.53233        0.02247        0.00000
 C         -0.00192        0.01421        0.00000
 O          0.37239        1.40356        0.00000
 H          1.34248        1.44036        0.00000
 H         -1.92991       -0.99819        0.00000
 H         -1.90797        0.54382       -0.88653
 H         -1.90797        0.54382        0.88653
 C          0.54303       -0.66466       -1.26580
 C          0.54303       -0.66466        1.26580
 H          0.17836       -0.14752       -2.15943
 H          0.17836       -0.14752        2.15943
 H          0.23752       -1.71600       -1.32280
 H          0.23752       -1.71600        1.32280
 H          1.64084       -0.63767       -1.28032
 H          1.64084       -0.63767        1.28032
 }
 basis={ default,tzvp }
 {ks,PW91,direct;wf,42,1,0}
 {ibba,bonds=1}

 Variables initialized (895), CPU time= 0.00 sec
 Commands  initialized (725), CPU time= 0.01 sec, 591 directives.
 Default parameters read. Elapsed time= 0.17 sec

 Checking input...
 Passed
1


                                         ***  PROGRAM SYSTEM MOLPRO  ***
                                       Copyright, TTI GmbH Stuttgart, 2015
                                    Version 2099.9 linked May 26 2017 16:03:21


 **********************************************************************************************************************************
 LABEL *                                                                                 
  64 bit serial version                                                                  DATE: 12-Jun-17          TIME: 19:29:29  
 **********************************************************************************************************************************

 SHA1:             b4a5b34a9e711420743f49e6833241d17c61fb3c
 **********************************************************************************************************************************
 SETTING GEOMTYP        =    XYZ

 Variable memory set to  500000000 words,  buffer space 

 ZSYMEL=NOSYM

 SETTING BASIS          =    TZVP


 Recomputing integrals since basis changed


 Using spherical harmonics

 Library entry C      S def2-TZVP            selected for orbital group  1
 Library entry C      P def2-TZVP            selected for orbital group  1
 Library entry C      D def2-TZVP            selected for orbital group  1
 Library entry C      F def2-TZVP            selected for orbital group  1
 Library entry O      S def2-TZVP            selected for orbital group  2
 Library entry O      P def2-TZVP            selected for orbital group  2
 Library entry O      D def2-TZVP            selected for orbital group  2
 Library entry O      F def2-TZVP            selected for orbital group  2
 Library entry H      S def2-TZVP            selected for orbital group  3
 Library entry H      P def2-TZVP            selected for orbital group  3


 PROGRAM * SEWARD (Integral evaluation for generally contracted gaussian basis sets)     Author: Roland Lindh, 1990

 Geometry written to block  1 of record 700


 Point group  C1  



 ATOMIC COORDINATES

 NR  ATOM    CHARGE       X              Y              Z

   1  C       6.00   -2.895684032    0.042462146    0.000000000
   2  C       6.00   -0.003628274    0.026853008    0.000000000
   3  O       8.00    0.703715112    2.652343999    0.000000000
   4  H       1.00    2.536919528    2.721885921    0.000000000
   5  H       1.00   -3.647001345   -1.886305720    0.000000000
   6  H       1.00   -3.605540754    1.027670861   -1.675298901
   7  H       1.00   -3.605540754    1.027670861    1.675298901
   8  C       6.00    1.026177977   -1.256025366   -2.392015328
   9  C       6.00    1.026177977   -1.256025366    2.392015328
  10  H       1.00    0.337051552   -0.278772398   -4.080731285
  11  H       1.00    0.337051552   -0.278772398    4.080731285
  12  H       1.00    0.448847749   -3.242770030   -2.499729718
  13  H       1.00    0.448847749   -3.242770030    2.499729718
  14  H       1.00    3.100738214   -1.205021658   -2.419454152
  15  H       1.00    3.100738214   -1.205021658    2.419454152

 Bond lengths in Bohr (Angstrom)

 1-2  2.892097881  1-5  2.069933136  1-6  2.069096224  1-7  2.069096224  2-3  2.719106031
     ( 1.530432290)     ( 1.095361444)     ( 1.094918569)     ( 1.094918569)     ( 1.438888946)

  2- 8  2.903104402   2- 9  2.903104402   3- 4  1.834522965   8-10  2.069222119   8-12  2.071730422
       ( 1.536256691)       ( 1.536256691)       ( 0.970787746)       ( 1.094985190)       ( 1.096312526)

  8-14  2.075368508   9-11  2.069222119   9-13  2.071730422   9-15  2.075368508
       ( 1.098237719)       ( 1.094985190)       ( 1.096312526)       ( 1.098237719)

 Bond angles

  1-2-3  104.76902697   1-2-8  110.92255387   1-2-9  110.92255387   2-1-5  110.97328220

  2- 1- 6  110.22090701   2- 1- 7  110.22090701   2- 3- 4  107.25071562   2- 8-10  110.21836376

  2- 8-12  111.57747468   2- 8-14  110.77023896   2- 9-11  110.21836376   2- 9-13  111.57747468

  2- 9-15  110.77023896   3- 2- 8  109.53648747   3- 2- 9  109.53648747   5- 1- 6  108.61190457

  5- 1- 7  108.61190457   6- 1- 7  108.12870271   8- 2- 9  110.96453384  10- 8-12  108.52192632

 10- 8-14  108.08997829  11- 9-13  108.52192632  11- 9-15  108.08997829  12- 8-14  107.54424578

 13- 9-15  107.54424578

 NUCLEAR CHARGE:                   42
 NUMBER OF PRIMITIVE AOS:         335
 NUMBER OF SYMMETRY AOS:          310
 NUMBER OF CONTRACTIONS:          215   ( 215A   )
 NUMBER OF CORE ORBITALS:           5   (   5A   )
 NUMBER OF VALENCE ORBITALS:       30   (  30A   )


 NUCLEAR REPULSION ENERGY  198.77359127


 Eigenvalues of metric

         1 0.262E-03 0.510E-03 0.539E-03 0.594E-03 0.697E-03 0.755E-03 0.210E-02 0.239E-02


 Contracted 2-electron integrals neglected if value below      1.0D-11
 AO integral compression algorithm  1   Integral accuracy      1.0D-11

     977.797 MB (compressed) written to integral file ( 41.7%)


 NUMBER OF SORTED TWO-ELECTRON INTEGRALS:  269595810.     BUFFER LENGTH:  32768
 NUMBER OF SEGMENTS:  17  SEGMENT LENGTH:   15999762      RECORD LENGTH: 524288

 Memory used in sort:      16.56 MW

 SORT1 READ   292827432. AND WROTE   238500613. INTEGRALS IN    690 RECORDS. CPU TIME:     3.55 SEC, REAL TIME:     6.98 SEC
 SORT2 READ   238500613. AND WROTE   269595810. INTEGRALS IN   3730 RECORDS. CPU TIME:     6.76 SEC, REAL TIME:    38.97 SEC

 FILE SIZES:   FILE 1:  1009.7 MBYTE,  FILE 4:  2894.1 MBYTE,   TOTAL:   3903.8 MBYTE

 OPERATOR DM      FOR CENTER  0  COORDINATES:    0.000000    0.000000    0.000000


 **********************************************************************************************************************************
 DATASETS  * FILE   NREC   LENGTH (MB)   RECORD NAMES
              1      19      926.27       500      610      700      900      950      970     1000      129      960     1100   
                                          VAR    BASINP    GEOM    SYMINP    ZMAT    AOBASIS   BASIS     P2S    ABASIS      S 
                                         1400     1410     1200     1210     1080     1600     1650     1300     1700   
                                           T        V       H0       H01     AOSYM     SMH    MOLCAS    ERIS     OPER   

 PROGRAMS   *        TOTAL       INT
 CPU TIMES  *        26.44     26.29
 REAL TIME  *        66.38 SEC
 DISK USED  *         3.90 GB      
 **********************************************************************************************************************************

 Density functional group PW91=PW91X+PW91C
 Functional: PW91X(Automatically generated (new) PW91X)                        Gradient terms: 1
 Functional: PW91C(Automatically generated (new) PW91C)                        Gradient terms: 1
 Use grid at  1800.2

 Functional: PW91X                     Factor:  1.0000
 Functional: PW91C                     Factor:  1.0000

 Generated new metagrid on record  1800.2 with target accuracy 1.0D-06 and 54596 points in CPU time    1.7
 Computed new grid on record 1800.1 in CPU time    1.9
  175219 words reserved for DFT integration

 PROGRAM * RKS-SCF (Restricted closed shell Kohn-Sham)     Authors: W. Meyer, H.-J. Werner, P.J. Knowles, 1993

 NUMBER OF ELECTRONS:      21+   21-    SPACE SYMMETRY=1    SPIN SYMMETRY: Singlet 
 CONVERGENCE THRESHOLDS:    1.00E-05 (Density)    1.00E-06 (Energy)
 MAX. NUMBER OF ITERATIONS:       60
 INTERPOLATION TYPE:            DIIS
 INTERPOLATION STEPS:              2 (START)      1 (STEP)
 LEVEL SHIFTS:                  0.00 (CLOSED)  0.00 (OPEN) 



 Use fine grid record 1800.2 for energy threshold  1.0D-06
 Orbital guess generated from atomic densities. Full valence occupancy:   21

 Molecular orbital dump at record        2100.2

 Initial occupancy:  21

 ITERATION    DDIFF          GRAD             ENERGY        2-EL.EN.            DIPOLE MOMENTS         DIIS   ORB.
    1      0.000D+00      0.000D+00      -233.34245333    641.052373    0.70542   -0.78319    0.00000    0    start
    2      0.000D+00      0.890D-02      -232.75081464    588.728649   -0.58630    0.42376    0.00000    1    diag
    3      0.230D-01      0.147D-01      -233.64928801    624.252286    0.43833   -0.69730    0.00000    2    diag
    4      0.203D-01      0.195D-02      -233.65971800    622.150862    0.34290   -0.36857    0.00000    3    diag
    5      0.141D-02      0.858D-03      -233.66196283    621.974080    0.33387   -0.50277    0.00000    4    diag
    6      0.489D-03      0.247D-03      -233.66215361    622.158869    0.34117   -0.47210    0.00000    5    diag
    7      0.136D-03      0.839D-04      -233.66217517    622.138467    0.34453   -0.47272    0.00000    6    diag
    8      0.345D-04      0.958D-05      -233.66217553    622.153489    0.34282   -0.47710    0.00000    7    diag
    9      0.105D-04      0.344D-05      -233.66217558    622.152224    0.34348   -0.47560    0.00000    8    diag
   10      0.303D-05      0.499D-06      -233.66217558    622.150574    0.34341   -0.47572    0.00000    0    orth

 Final occupancy:  21

 !RKS STATE 1.1 Energy               -233.662175583216
 Nuclear energy                       198.77359127
 One-electron energy                 -709.55661670
 Two-electron energy                  311.07528700
 Density functional                   -33.95443715     PW91X=-32.49990127 PW91C= -1.45453588
 Virial quotient                       -1.00501158
 !RKS STATE 1.1 Dipole moment           0.34341002    -0.47571891     0.00000000
 Dipole moment /Debye                   0.87280404    -1.20907766     0.00000000

 Orbital energies:

         1.1          2.1          3.1          4.1          5.1          6.1          7.1          8.1          9.1         10.1
    -18.755727    -9.952848    -9.884796    -9.884792    -9.879899    -0.930322    -0.715953    -0.625894    -0.625141    -0.514406

        11.1         12.1         13.1         14.1         15.1         16.1         17.1         18.1         19.1         20.1
     -0.440851    -0.405467    -0.402818    -0.367403    -0.354307    -0.338087    -0.324702    -0.313255    -0.307094    -0.279717

        21.1         22.1         23.1
     -0.226149    -0.004823     0.040192

 HOMO     21.1    -0.226149 =      -6.1538eV
 LUMO     22.1    -0.004823 =      -0.1313eV
 LUMO-HOMO         0.221325 =       6.0226eV


 **********************************************************************************************************************************
 DATASETS  * FILE   NREC   LENGTH (MB)   RECORD NAMES
              1      20      928.02       500      610      700      900      950      970     1000      129      960     1100   
                                          VAR    BASINP    GEOM    SYMINP    ZMAT    AOBASIS   BASIS     P2S    ABASIS      S 
                                         1400     1410     1200     1210     1080     1600     1650     1300     1700     1800   
                                           T        V       H0       H01     AOSYM     SMH    MOLCAS    ERIS     OPER     GRID   

              2       5        3.96       700     1000      520     1800     2100   
                                         GEOM     BASIS   MCVARS    GRID      RKS  

 PROGRAMS   *        TOTAL        KS       INT
 CPU TIMES  *        72.84     46.40     26.29
 REAL TIME  *       114.54 SEC
 DISK USED  *         3.90 GB      
 **********************************************************************************************************************************


 PROGRAM * Intrinsic Basis Bonding Analysis (IBBA)          Author: G. Knizia

 Molecular orbitals read from record     2100.2  Type=RKS/CANONICAL (state 1.1)
 Fock matrix read from record            2100.2  Type=RKS/TOTAL (state 1.1)
 Orbital energies read from record       2100.2  Type=RKS/CANONICAL (state 1.1)
 Density matrix read from record         2100.2  Type=RKS/CHARGE (state 1.1)

 Number of core orbitals:           5 (   5 )
 Number of closed-shell orbitals:  16 (  16 )

 Basis set MINAO-AUTO-PP generated.      Number of basis functions:   35 

 Polarized AO type:                A = (O Ot + (1-O)(1-Ot)) P12
 Orthogonalization method:         Symmetric (Loewdin)
 Localization functional:          L = sum[A,i] <i|n_A|i>^4 -> max

 Localization group 1:  21 orbitals, occupancy  2.000
 Iterative localization: IB/PM,    7 iter; Final gradient 0.14E-08

 Bond order analysis:       [THRPRINT= 0.020]

   CEN ATOM   CEN ATOM     WIBERG.BO      RENORM.BO
     1   C  -   2   C       0.996265       0.992936
     1   C  -   5   H       0.959829       0.986054
     1   C  -   6   H       0.955028       0.979771
     1   C  -   7   H       0.955028       0.979771

     2   C  -   1   C       0.996265       0.992936
     2   C  -   9   C       0.994844       0.973537
     2   C  -   8   C       0.994844       0.973537
     2   C  -   3   O       0.937944       0.945120

     3   O  -   2   C       0.937944       0.945120
     3   O  -   4   H       0.861349       0.973461
     3   O  -   9   C       0.030541       0.015619
     3   O  -   8   C       0.030541       0.015619

     4   H  -   3   O       0.861349       0.973461

     5   H  -   1   C       0.959829       0.986054

     6   H  -   1   C       0.955028       0.979771

     7   H  -   1   C       0.955028       0.979771

     8   C  -   2   C       0.994844       0.973537
     8   C  -  14   H       0.959337       0.980577
     8   C  -  10   H       0.955668       0.979654
     8   C  -  12   H       0.954979       0.978865
     8   C  -   3   O       0.030541       0.015619

     9   C  -   2   C       0.994844       0.973537
     9   C  -  15   H       0.959337       0.980577
     9   C  -  11   H       0.955668       0.979654
     9   C  -  13   H       0.954979       0.978865
     9   C  -   3   O       0.030541       0.015619

    10   H  -   8   C       0.955668       0.979654

    11   H  -   9   C       0.955668       0.979654

    12   H  -   8   C       0.954979       0.978865

    13   H  -   9   C       0.954979       0.978865

    14   H  -   8   C       0.959337       0.980577

    15   H  -   9   C       0.959337       0.980577


 Valency analysis:

   CEN ATOM   TOT.VALENCE
     1   C       3.931513
     2   C       3.934910
     3   O       1.935199
     4   H       0.883050
     5   H       0.980081
     6   H       0.977567
     7   H       0.977567
     8   C       3.934312
     9   C       3.934312
    10   H       0.977639
    11   H       0.977639
    12   H       0.979467
    13   H       0.979467
    14   H       0.981868
    15   H       0.981868

 Total charge composition:

   CEN ATOM         s          p       ELECTRONS ->P.CHARGE
     1   C       3.04568    3.38732      6.43300   -0.43300
     2   C       2.94003    2.81330      5.75333    0.24667
     3   O       3.65213    4.90651      8.55864   -0.55864
     4   H       0.65802                 0.65802    0.34198
     5   H       0.85887                 0.85887    0.14113
     6   H       0.85022                 0.85022    0.14978
     7   H       0.85022                 0.85022    0.14978
     8   C       3.05251    3.39383      6.44633   -0.44633
     9   C       3.05251    3.39383      6.44633   -0.44633
    10   H       0.85046                 0.85046    0.14954
    11   H       0.85046                 0.85046    0.14954
    12   H       0.85671                 0.85671    0.14329
    13   H       0.85671                 0.85671    0.14329
    14   H       0.86535                 0.86535    0.13465
    15   H       0.86535                 0.86535    0.13465

 Total charge composition, AO contributions:

   CEN ATOM SHL      SPHERICAL COMPONENTS
     1   C  1s       1.99140
     1   C  2s       1.05428
     1   C  2p       1.04079    1.16700    1.17953

     2   C  1s       1.99302
     2   C  2s       0.94701
     2   C  2p       1.00833    0.79354    1.01144

     3   O  1s       1.99721
     3   O  2s       1.65492
     3   O  2p       1.47036    1.48508    1.95107

     4   H  1s       0.65802

     5   H  1s       0.85887

     6   H  1s       0.85022

     7   H  1s       0.85022

     8   C  1s       1.99151
     8   C  2s       1.06100
     8   C  2p       1.14861    1.14817    1.09705

     9   C  1s       1.99151
     9   C  2s       1.06100
     9   C  2p       1.14861    1.14817    1.09705

    10   H  1s       0.85046

    11   H  1s       0.85046

    12   H  1s       0.85671

    13   H  1s       0.85671

    14   H  1s       0.86535

    15   H  1s       0.86535

 Summary of localized orbital composition:   [THRPRINT= 0.020]

   ORB  GRP  ORB.ENERGY      CENTERS/CHARGES
     1   1   -18.602192      O  3   2.000
     2   1    -9.863479      C  2   2.000
     3   1    -9.772701      C  8   2.000
     4   1    -9.772701      C  9   2.000
     5   1    -9.767030      C  1   2.000
     6   1    -0.697886      O  3   1.345   H  4   0.645
     7   1    -0.656322      O  3   1.278   C  2   0.702
     8   1    -0.521298      C  8   1.007   C  2   0.977
     9   1    -0.521298      C  9   1.007   C  2   0.977
    10   1    -0.521022      C  1   0.990   C  2   0.984   (other: 0.025)
    11   1    -0.511891      O  3   1.980
    12   1    -0.456431      C  9   1.139   H 13   0.846
    13   1    -0.456431      C  8   1.139   H 12   0.846
    14   1    -0.454991      C  8   1.130   H 14   0.857
    15   1    -0.454991      C  9   1.130   H 15   0.857
    16   1    -0.452474      C  1   1.134   H  5   0.851
    17   1    -0.450541      C  9   1.147   H 11   0.842
    18   1    -0.450541      C  8   1.147   H 10   0.842
    19   1    -0.446209      C  1   1.146   H  6   0.841
    20   1    -0.446209      C  1   1.146   H  7   0.841
    21   1    -0.252991      O  3   1.951   (other: 0.049)

 Localized orbitals saved to record      2100.2  (orbital set 2)


 **********************************************************************************************************************************
 DATASETS  * FILE   NREC   LENGTH (MB)   RECORD NAMES
              1      20      928.02       500      610      700      900      950      970     1000      129      960     1100   
                                          VAR    BASINP    GEOM    SYMINP    ZMAT    AOBASIS   BASIS     P2S    ABASIS      S 
                                         1400     1410     1200     1210     1080     1600     1650     1300     1700     1800   
                                           T        V       H0       H01     AOSYM     SMH    MOLCAS    ERIS     OPER     GRID   

              2       5        4.33       700     1000      520     1800     2100   
                                         GEOM     BASIS   MCVARS    GRID      RKS  

 PROGRAMS   *        TOTAL      IBBA        KS       INT
 CPU TIMES  *        72.91      0.07     46.40     26.29
 REAL TIME  *       114.72 SEC
 DISK USED  *         3.90 GB      
 **********************************************************************************************************************************
 Molecular orbitals read from record     2100.2  Type=RKS/LOCAL(IBO)  
 Occupation numbers read from record     2100.2  Type=RKS/LOCAL(IBO)  
 Orbital energies read from record       2100.2  Type=RKS/LOCAL(IBO)  
 Redundancy group numbers read from rec  2100.2  Type=RKS/LOCAL(IBO)  

 IBBA/TZVP energy=      0.000000000000

        KS-SCF  
   -233.66217558
 **********************************************************************************************************************************
 Molpro calculation terminated
