
 Primary working directories    : /local
 Secondary working directories  : /local
 Wavefunction directory         : /local/
 Main file repository           : /local/

 SHA1      : b4a5b34a9e711420743f49e6833241d17c61fb3c
 NAME      : 2099.9.b4a5b34
 ARCHNAME  : linux/x86_64_openmp
 FC        : /cm/shared/languages/GCC-6.1/bin/gfortran
 BLASLIB   : -lblas
 id        : simonbennie

 Nodes     nprocs
 node32-001    1

 Using customized tuning parameters: mindgm=1; mindgv=20; mindgc=4; mindgr=1; noblas=0; minvec=7
 default implementation of scratch files=df  

 memory,500,m
 geomtyp=xyz
 nosym
 noorient
 geometry={
 C         -1.53233        0.02247        0.00000
 C         -0.00192        0.01421        0.00000
 O          0.37239        1.40356        0.00000
 H          1.34248        1.44036        0.00000
 H         -1.92991       -0.99819        0.00000
 H         -1.90797        0.54382       -0.88653
 H         -1.90797        0.54382        0.88653
 C          0.54303       -0.66466       -1.26580
 C          0.54303       -0.66466        1.26580
 H          0.17836       -0.14752       -2.15943
 H          0.17836       -0.14752        2.15943
 H          0.23752       -1.71600       -1.32280
 H          0.23752       -1.71600        1.32280
 H          1.64084       -0.63767       -1.28032
 H          1.64084       -0.63767        1.28032
 }
 basis={ default,SV(P) }
 {ks,MM06-L,direct;wf,42,1,0}
 {ibba,bonds=1}

 Variables initialized (895), CPU time= 0.00 sec
 Commands  initialized (725), CPU time= 0.01 sec, 591 directives.
 Default parameters read. Elapsed time= 0.20 sec

 Checking input...
 Passed
1


                                         ***  PROGRAM SYSTEM MOLPRO  ***
                                       Copyright, TTI GmbH Stuttgart, 2015
                                    Version 2099.9 linked May 26 2017 16:03:21


 **********************************************************************************************************************************
 LABEL *                                                                                 
  64 bit serial version                                                                  DATE: 12-Jun-17          TIME: 20:28:33  
 **********************************************************************************************************************************

 SHA1:             b4a5b34a9e711420743f49e6833241d17c61fb3c
 **********************************************************************************************************************************
 SETTING GEOMTYP        =    XYZ

 Variable memory set to  500000000 words,  buffer space 

 ZSYMEL=NOSYM

 SETTING BASIS          =    SV(P)


 Recomputing integrals since basis changed


 Using spherical harmonics

 Library entry C      S def2-SV(P)           selected for orbital group  1
 Library entry C      P def2-SV(P)           selected for orbital group  1
 Library entry C      D def2-SV(P)           selected for orbital group  1
 Library entry O      S def2-SV(P)           selected for orbital group  2
 Library entry O      P def2-SV(P)           selected for orbital group  2
 Library entry O      D def2-SV(P)           selected for orbital group  2
 Library entry H      S def2-SV(P)           selected for orbital group  3


 PROGRAM * SEWARD (Integral evaluation for generally contracted gaussian basis sets)     Author: Roland Lindh, 1990

 Geometry written to block  1 of record 700


 Point group  C1  



 ATOMIC COORDINATES

 NR  ATOM    CHARGE       X              Y              Z

   1  C       6.00   -2.895684032    0.042462146    0.000000000
   2  C       6.00   -0.003628274    0.026853008    0.000000000
   3  O       8.00    0.703715112    2.652343999    0.000000000
   4  H       1.00    2.536919528    2.721885921    0.000000000
   5  H       1.00   -3.647001345   -1.886305720    0.000000000
   6  H       1.00   -3.605540754    1.027670861   -1.675298901
   7  H       1.00   -3.605540754    1.027670861    1.675298901
   8  C       6.00    1.026177977   -1.256025366   -2.392015328
   9  C       6.00    1.026177977   -1.256025366    2.392015328
  10  H       1.00    0.337051552   -0.278772398   -4.080731285
  11  H       1.00    0.337051552   -0.278772398    4.080731285
  12  H       1.00    0.448847749   -3.242770030   -2.499729718
  13  H       1.00    0.448847749   -3.242770030    2.499729718
  14  H       1.00    3.100738214   -1.205021658   -2.419454152
  15  H       1.00    3.100738214   -1.205021658    2.419454152

 Bond lengths in Bohr (Angstrom)

 1-2  2.892097881  1-5  2.069933136  1-6  2.069096224  1-7  2.069096224  2-3  2.719106031
     ( 1.530432290)     ( 1.095361444)     ( 1.094918569)     ( 1.094918569)     ( 1.438888946)

  2- 8  2.903104402   2- 9  2.903104402   3- 4  1.834522965   8-10  2.069222119   8-12  2.071730422
       ( 1.536256691)       ( 1.536256691)       ( 0.970787746)       ( 1.094985190)       ( 1.096312526)

  8-14  2.075368508   9-11  2.069222119   9-13  2.071730422   9-15  2.075368508
       ( 1.098237719)       ( 1.094985190)       ( 1.096312526)       ( 1.098237719)

 Bond angles

  1-2-3  104.76902697   1-2-8  110.92255387   1-2-9  110.92255387   2-1-5  110.97328220

  2- 1- 6  110.22090701   2- 1- 7  110.22090701   2- 3- 4  107.25071562   2- 8-10  110.21836376

  2- 8-12  111.57747468   2- 8-14  110.77023896   2- 9-11  110.21836376   2- 9-13  111.57747468

  2- 9-15  110.77023896   3- 2- 8  109.53648747   3- 2- 9  109.53648747   5- 1- 6  108.61190457

  5- 1- 7  108.61190457   6- 1- 7  108.12870271   8- 2- 9  110.96453384  10- 8-12  108.52192632

 10- 8-14  108.08997829  11- 9-13  108.52192632  11- 9-15  108.08997829  12- 8-14  107.54424578

 13- 9-15  107.54424578

 NUCLEAR CHARGE:                   42
 NUMBER OF PRIMITIVE AOS:         165
 NUMBER OF SYMMETRY AOS:          160
 NUMBER OF CONTRACTIONS:           90   (  90A   )
 NUMBER OF CORE ORBITALS:           5   (   5A   )
 NUMBER OF VALENCE ORBITALS:       30   (  30A   )


 NUCLEAR REPULSION ENERGY  198.77359127


 Eigenvalues of metric

         1 0.179E-02 0.600E-02 0.603E-02 0.144E-01 0.286E-01 0.297E-01 0.300E-01 0.361E-01


 Contracted 2-electron integrals neglected if value below      1.0D-11
 AO integral compression algorithm  1   Integral accuracy      1.0D-11

     37.487 MB (compressed) written to integral file ( 49.6%)


 NUMBER OF SORTED TWO-ELECTRON INTEGRALS:    8386560.     BUFFER LENGTH:  32768
 NUMBER OF SEGMENTS:   1  SEGMENT LENGTH:    8386560      RECORD LENGTH: 524288

 Memory used in sort:       8.94 MW

 SORT1 READ     9478508. AND WROTE     7931434. INTEGRALS IN     23 RECORDS. CPU TIME:     0.11 SEC, REAL TIME:     0.22 SEC
 SORT2 READ     7931434. AND WROTE     8386560. INTEGRALS IN    143 RECORDS. CPU TIME:     0.22 SEC, REAL TIME:     0.30 SEC

 FILE SIZES:   FILE 1:    68.0 MBYTE,  FILE 4:    96.5 MBYTE,   TOTAL:    164.5 MBYTE

 OPERATOR DM      FOR CENTER  0  COORDINATES:    0.000000    0.000000    0.000000


 **********************************************************************************************************************************
 DATASETS  * FILE   NREC   LENGTH (MB)   RECORD NAMES
              1      19       63.39       500      610      700      900      950      970     1000      129      960     1100   
                                          VAR    BASINP    GEOM    SYMINP    ZMAT    AOBASIS   BASIS     P2S    ABASIS      S 
                                         1400     1410     1200     1210     1080     1600     1650     1300     1700   
                                           T        V       H0       H01     AOSYM     SMH    MOLCAS    ERIS     OPER   

 PROGRAMS   *        TOTAL       INT
 CPU TIMES  *         1.73      1.60
 REAL TIME  *         2.61 SEC
 DISK USED  *       165.03 MB      
 **********************************************************************************************************************************

 Density functional group MM06-L=M06LX+M06LC
 Functional: M06LX(Automatically generated (new) M06LX)                        Gradient terms: 2
 Functional: M06LC(Automatically generated (new) M06LC)                        Gradient terms: 2
 Use grid at  1800.2

 Functional: M06LX                     Factor:  1.0000
 Functional: M06LC                     Factor:  1.0000

 Generated new metagrid on record  1800.2 with target accuracy 1.0D-06 and 53396 points in CPU time    1.6
 Computed new grid on record 1800.1 in CPU time    1.7
  144489 words reserved for DFT integration

 PROGRAM * RKS-SCF (Restricted closed shell Kohn-Sham)     Authors: W. Meyer, H.-J. Werner, P.J. Knowles, 1993

 NUMBER OF ELECTRONS:      21+   21-    SPACE SYMMETRY=1    SPIN SYMMETRY: Singlet 
 CONVERGENCE THRESHOLDS:    1.00E-05 (Density)    1.00E-06 (Energy)
 MAX. NUMBER OF ITERATIONS:       60
 INTERPOLATION TYPE:            DIIS
 INTERPOLATION STEPS:              2 (START)      1 (STEP)
 LEVEL SHIFTS:                  0.00 (CLOSED)  0.00 (OPEN) 



 Use fine grid record 1800.2 for energy threshold  1.0D-06
 Orbital guess generated from atomic densities. Full valence occupancy:   21

 Molecular orbital dump at record        2100.2

 Initial occupancy:  21

 ITERATION    DDIFF          GRAD             ENERGY        2-EL.EN.            DIPOLE MOMENTS         DIIS   ORB.
    1      0.000D+00      0.000D+00      -233.21090971    636.972183    0.71759   -0.84701    0.00000    0    start
    2      0.000D+00      0.123D-01      -233.01704271    600.960130   -0.14780    0.13246    0.00000    1    diag
    3      0.328D-01      0.167D-01      -233.43241352    622.467151    0.41821   -0.59420    0.00000    2    diag
    4      0.217D-01      0.129D-02      -233.43404042    621.771630    0.38476   -0.44423    0.00000    3    diag
    5      0.182D-02      0.648D-03      -233.43454776    621.748026    0.39067   -0.49966    0.00000    4    diag
    6      0.672D-03      0.132D-03      -233.43455876    621.799741    0.39130   -0.48760    0.00000    5    diag
    7      0.191D-03      0.861D-04      -233.43456842    621.758397    0.39104   -0.49011    0.00000    6    diag
    8      0.771D-04      0.524D-05      -233.43456846    621.758620    0.39088   -0.49116    0.00000    7    diag
    9      0.770D-05      0.119D-05      -233.43456846    621.757924    0.39093   -0.49068    0.00000    0    orth

 Final occupancy:  21

 !RKS STATE 1.1 Energy               -233.434568461882
 Nuclear energy                       198.77359127
 One-electron energy                 -709.07778394
 Two-electron energy                  310.87896202
 Density functional                   -34.00933781     M06LX=-32.50607110 M06LC= -1.50326671
 Virial quotient                       -1.00894317
 !RKS STATE 1.1 Dipole moment           0.39093413    -0.49067962     0.00000000
 Dipole moment /Debye                   0.99359037    -1.24710152     0.00000000

 Orbital energies:

         1.1          2.1          3.1          4.1          5.1          6.1          7.1          8.1          9.1         10.1
    -18.952066   -10.112961   -10.044840   -10.044832   -10.039000    -0.969765    -0.741310    -0.646150    -0.644679    -0.524748

        11.1         12.1         13.1         14.1         15.1         16.1         17.1         18.1         19.1         20.1
     -0.449895    -0.412155    -0.409842    -0.373290    -0.361261    -0.344735    -0.332298    -0.318219    -0.313243    -0.282863

        21.1         22.1         23.1
     -0.226911     0.049910     0.089725

 HOMO     21.1    -0.226911 =      -6.1746eV
 LUMO     22.1     0.049910 =       1.3581eV
 LUMO-HOMO         0.276821 =       7.5327eV


 **********************************************************************************************************************************
 DATASETS  * FILE   NREC   LENGTH (MB)   RECORD NAMES
              1      20       65.10       500      610      700      900      950      970     1000      129      960     1100   
                                          VAR    BASINP    GEOM    SYMINP    ZMAT    AOBASIS   BASIS     P2S    ABASIS      S 
                                         1400     1410     1200     1210     1080     1600     1650     1300     1700     1800   
                                           T        V       H0       H01     AOSYM     SMH    MOLCAS    ERIS     OPER     GRID   

              2       5        3.17       700     1000      520     1800     2100   
                                         GEOM     BASIS   MCVARS    GRID      RKS  

 PROGRAMS   *        TOTAL        KS       INT
 CPU TIMES  *        29.28     27.55      1.60
 REAL TIME  *        30.40 SEC
 DISK USED  *       165.03 MB      
 **********************************************************************************************************************************


 PROGRAM * Intrinsic Basis Bonding Analysis (IBBA)          Author: G. Knizia

 Molecular orbitals read from record     2100.2  Type=RKS/CANONICAL (state 1.1)
 Fock matrix read from record            2100.2  Type=RKS/TOTAL (state 1.1)
 Orbital energies read from record       2100.2  Type=RKS/CANONICAL (state 1.1)
 Density matrix read from record         2100.2  Type=RKS/CHARGE (state 1.1)

 Number of core orbitals:           5 (   5 )
 Number of closed-shell orbitals:  16 (  16 )

 Basis set MINAO-AUTO-PP generated.      Number of basis functions:   35 

 Polarized AO type:                A = (O Ot + (1-O)(1-Ot)) P12
 Orthogonalization method:         Symmetric (Loewdin)
 Localization functional:          L = sum[A,i] <i|n_A|i>^4 -> max

 Localization group 1:  21 orbitals, occupancy  2.000
 Iterative localization: IB/PM,    7 iter; Final gradient 0.26E-08

 Bond order analysis:       [THRPRINT= 0.020]

   CEN ATOM   CEN ATOM     WIBERG.BO      RENORM.BO
     1   C  -   2   C       0.995845       0.993674
     1   C  -   5   H       0.966831       0.987462
     1   C  -   6   H       0.962364       0.981792
     1   C  -   7   H       0.962364       0.981792

     2   C  -   1   C       0.995845       0.993674
     2   C  -   9   C       0.994244       0.975077
     2   C  -   8   C       0.994244       0.975077
     2   C  -   3   O       0.935281       0.951019

     3   O  -   2   C       0.935281       0.951019
     3   O  -   4   H       0.875833       0.978343
     3   O  -   8   C       0.028096       0.014298
     3   O  -   9   C       0.028096       0.014298

     4   H  -   3   O       0.875833       0.978343

     5   H  -   1   C       0.966831       0.987462

     6   H  -   1   C       0.962364       0.981792

     7   H  -   1   C       0.962364       0.981792

     8   C  -   2   C       0.994244       0.975077
     8   C  -  14   H       0.966216       0.982404
     8   C  -  10   H       0.962625       0.981464
     8   C  -  12   H       0.962218       0.981058
     8   C  -   3   O       0.028096       0.014298

     9   C  -   2   C       0.994244       0.975077
     9   C  -  15   H       0.966216       0.982404
     9   C  -  11   H       0.962625       0.981464
     9   C  -  13   H       0.962218       0.981058
     9   C  -   3   O       0.028096       0.014298

    10   H  -   8   C       0.962625       0.981464

    11   H  -   9   C       0.962625       0.981464

    12   H  -   8   C       0.962218       0.981058

    13   H  -   9   C       0.962218       0.981058

    14   H  -   8   C       0.966216       0.982404

    15   H  -   9   C       0.966216       0.982404


 Valency analysis:

   CEN ATOM   TOT.VALENCE
     1   C       3.947188
     2   C       3.930238
     3   O       1.934837
     4   H       0.894402
     5   H       0.984958
     6   H       0.982811
     7   H       0.982811
     8   C       3.948802
     9   C       3.948802
    10   H       0.982768
    11   H       0.982768
    12   H       0.984236
    13   H       0.984236
    14   H       0.986471
    15   H       0.986471

 Total charge composition:

   CEN ATOM         s          p       ELECTRONS ->P.CHARGE
     1   C       3.03437    3.34744      6.38181   -0.38181
     2   C       2.92889    2.80051      5.72940    0.27060
     3   O       3.65246    4.89799      8.55045   -0.55045
     4   H       0.67504                 0.67504    0.32496
     5   H       0.87735                 0.87735    0.12265
     6   H       0.86889                 0.86889    0.13111
     7   H       0.86889                 0.86889    0.13111
     8   C       3.04036    3.35686      6.39722   -0.39722
     9   C       3.04036    3.35686      6.39722   -0.39722
    10   H       0.86873                 0.86873    0.13127
    11   H       0.86873                 0.86873    0.13127
    12   H       0.87445                 0.87445    0.12555
    13   H       0.87445                 0.87445    0.12555
    14   H       0.88369                 0.88369    0.11631
    15   H       0.88369                 0.88369    0.11631

 Total charge composition, AO contributions:

   CEN ATOM SHL      SPHERICAL COMPONENTS
     1   C  1s       1.99080
     1   C  2s       1.04357
     1   C  2p       1.04421    1.14615    1.15708

     2   C  1s       1.99247
     2   C  2s       0.93642
     2   C  2p       1.00624    0.78792    1.00636

     3   O  1s       1.99705
     3   O  2s       1.65541
     3   O  2p       1.45563    1.48771    1.95465

     4   H  1s       0.67504

     5   H  1s       0.87735

     6   H  1s       0.86889

     7   H  1s       0.86889

     8   C  1s       1.99090
     8   C  2s       1.04946
     8   C  2p       1.13100    1.13245    1.09341

     9   C  1s       1.99090
     9   C  2s       1.04946
     9   C  2p       1.13100    1.13245    1.09341

    10   H  1s       0.86873

    11   H  1s       0.86873

    12   H  1s       0.87445

    13   H  1s       0.87445

    14   H  1s       0.88369

    15   H  1s       0.88369

 Summary of localized orbital composition:   [THRPRINT= 0.020]

   ORB  GRP  ORB.ENERGY      CENTERS/CHARGES
     1   1   -18.792719      O  3   2.000
     2   1   -10.021936      C  2   2.000
     3   1    -9.930665      C  8   2.000
     4   1    -9.930665      C  9   2.000
     5   1    -9.923982      C  1   2.000
     6   1    -0.717622      O  3   1.326   H  4   0.664
     7   1    -0.674827      O  3   1.284   C  2   0.697
     8   1    -0.537598      C  9   1.012   C  2   0.972
     9   1    -0.537598      C  8   1.012   C  2   0.972
    10   1    -0.536769      C  1   0.994   C  2   0.982   (other: 0.024)
    11   1    -0.528487      O  3   1.982
    12   1    -0.467114      C  8   1.121   H 12   0.865
    13   1    -0.467114      C  9   1.121   H 13   0.865
    14   1    -0.466007      C  9   1.112   H 15   0.877
    15   1    -0.466007      C  8   1.112   H 14   0.877
    16   1    -0.463113      C  1   1.116   H  5   0.870
    17   1    -0.460173      C  9   1.129   H 11   0.861
    18   1    -0.460173      C  8   1.129   H 10   0.861
    19   1    -0.454367      C  1   1.128   H  7   0.861
    20   1    -0.454367      C  1   1.128   H  6   0.861
    21   1    -0.253763      O  3   1.955   (other: 0.045)

 Localized orbitals saved to record      2100.2  (orbital set 2)


 **********************************************************************************************************************************
 DATASETS  * FILE   NREC   LENGTH (MB)   RECORD NAMES
              1      20       65.10       500      610      700      900      950      970     1000      129      960     1100   
                                          VAR    BASINP    GEOM    SYMINP    ZMAT    AOBASIS   BASIS     P2S    ABASIS      S 
                                         1400     1410     1200     1210     1080     1600     1650     1300     1700     1800   
                                           T        V       H0       H01     AOSYM     SMH    MOLCAS    ERIS     OPER     GRID   

              2       5        3.24       700     1000      520     1800     2100   
                                         GEOM     BASIS   MCVARS    GRID      RKS  

 PROGRAMS   *        TOTAL      IBBA        KS       INT
 CPU TIMES  *        29.33      0.04     27.55      1.60
 REAL TIME  *        30.55 SEC
 DISK USED  *       165.03 MB      
 **********************************************************************************************************************************
 Molecular orbitals read from record     2100.2  Type=RKS/LOCAL(IBO)  
 Occupation numbers read from record     2100.2  Type=RKS/LOCAL(IBO)  
 Orbital energies read from record       2100.2  Type=RKS/LOCAL(IBO)  
 Redundancy group numbers read from rec  2100.2  Type=RKS/LOCAL(IBO)  

 IBBA/SV(P) energy=      0.000000000000

        KS-SCF  
   -233.43456846
 **********************************************************************************************************************************
 Molpro calculation terminated
