
 Primary working directories    : /local
 Secondary working directories  : /local
 Wavefunction directory         : /local/
 Main file repository           : /local/

 SHA1      : b4a5b34a9e711420743f49e6833241d17c61fb3c
 NAME      : 2099.9.b4a5b34
 ARCHNAME  : linux/x86_64_openmp
 FC        : /cm/shared/languages/GCC-6.1/bin/gfortran
 BLASLIB   : -lblas
 id        : simonbennie

 Nodes     nprocs
 node36-007    1

 Using customized tuning parameters: mindgm=1; mindgv=20; mindgc=4; mindgr=1; noblas=0; minvec=7
 default implementation of scratch files=df  

 memory,500,m
 geomtyp=xyz
 nosym
 noorient
 geometry={
 C         -1.53233        0.02247        0.00000
 C         -0.00192        0.01421        0.00000
 O          0.37239        1.40356        0.00000
 H          1.34248        1.44036        0.00000
 H         -1.92991       -0.99819        0.00000
 H         -1.90797        0.54382       -0.88653
 H         -1.90797        0.54382        0.88653
 C          0.54303       -0.66466       -1.26580
 C          0.54303       -0.66466        1.26580
 H          0.17836       -0.14752       -2.15943
 H          0.17836       -0.14752        2.15943
 H          0.23752       -1.71600       -1.32280
 H          0.23752       -1.71600        1.32280
 H          1.64084       -0.63767       -1.28032
 H          1.64084       -0.63767        1.28032
 }
 basis={ default,tzvp }
 {uks,LDA,direct;wf,42,1,0}
 {ibba,bonds=1}

 Variables initialized (895), CPU time= 0.00 sec
 Commands  initialized (725), CPU time= 0.01 sec, 591 directives.
 Default parameters read. Elapsed time= 0.07 sec

 Checking input...
 Passed
1


                                         ***  PROGRAM SYSTEM MOLPRO  ***
                                       Copyright, TTI GmbH Stuttgart, 2015
                                    Version 2099.9 linked May 26 2017 16:03:21


 **********************************************************************************************************************************
 LABEL *                                                                                 
  64 bit serial version                                                                  DATE: 12-Jun-17          TIME: 20:07:37  
 **********************************************************************************************************************************

 SHA1:             b4a5b34a9e711420743f49e6833241d17c61fb3c
 **********************************************************************************************************************************
 SETTING GEOMTYP        =    XYZ

 Variable memory set to  500000000 words,  buffer space 

 ZSYMEL=NOSYM

 SETTING BASIS          =    TZVP


 Recomputing integrals since basis changed


 Using spherical harmonics

 Library entry C      S def2-TZVP            selected for orbital group  1
 Library entry C      P def2-TZVP            selected for orbital group  1
 Library entry C      D def2-TZVP            selected for orbital group  1
 Library entry C      F def2-TZVP            selected for orbital group  1
 Library entry O      S def2-TZVP            selected for orbital group  2
 Library entry O      P def2-TZVP            selected for orbital group  2
 Library entry O      D def2-TZVP            selected for orbital group  2
 Library entry O      F def2-TZVP            selected for orbital group  2
 Library entry H      S def2-TZVP            selected for orbital group  3
 Library entry H      P def2-TZVP            selected for orbital group  3


 PROGRAM * SEWARD (Integral evaluation for generally contracted gaussian basis sets)     Author: Roland Lindh, 1990

 Geometry written to block  1 of record 700


 Point group  C1  



 ATOMIC COORDINATES

 NR  ATOM    CHARGE       X              Y              Z

   1  C       6.00   -2.895684032    0.042462146    0.000000000
   2  C       6.00   -0.003628274    0.026853008    0.000000000
   3  O       8.00    0.703715112    2.652343999    0.000000000
   4  H       1.00    2.536919528    2.721885921    0.000000000
   5  H       1.00   -3.647001345   -1.886305720    0.000000000
   6  H       1.00   -3.605540754    1.027670861   -1.675298901
   7  H       1.00   -3.605540754    1.027670861    1.675298901
   8  C       6.00    1.026177977   -1.256025366   -2.392015328
   9  C       6.00    1.026177977   -1.256025366    2.392015328
  10  H       1.00    0.337051552   -0.278772398   -4.080731285
  11  H       1.00    0.337051552   -0.278772398    4.080731285
  12  H       1.00    0.448847749   -3.242770030   -2.499729718
  13  H       1.00    0.448847749   -3.242770030    2.499729718
  14  H       1.00    3.100738214   -1.205021658   -2.419454152
  15  H       1.00    3.100738214   -1.205021658    2.419454152

 Bond lengths in Bohr (Angstrom)

 1-2  2.892097881  1-5  2.069933136  1-6  2.069096224  1-7  2.069096224  2-3  2.719106031
     ( 1.530432290)     ( 1.095361444)     ( 1.094918569)     ( 1.094918569)     ( 1.438888946)

  2- 8  2.903104402   2- 9  2.903104402   3- 4  1.834522965   8-10  2.069222119   8-12  2.071730422
       ( 1.536256691)       ( 1.536256691)       ( 0.970787746)       ( 1.094985190)       ( 1.096312526)

  8-14  2.075368508   9-11  2.069222119   9-13  2.071730422   9-15  2.075368508
       ( 1.098237719)       ( 1.094985190)       ( 1.096312526)       ( 1.098237719)

 Bond angles

  1-2-3  104.76902697   1-2-8  110.92255387   1-2-9  110.92255387   2-1-5  110.97328220

  2- 1- 6  110.22090701   2- 1- 7  110.22090701   2- 3- 4  107.25071562   2- 8-10  110.21836376

  2- 8-12  111.57747468   2- 8-14  110.77023896   2- 9-11  110.21836376   2- 9-13  111.57747468

  2- 9-15  110.77023896   3- 2- 8  109.53648747   3- 2- 9  109.53648747   5- 1- 6  108.61190457

  5- 1- 7  108.61190457   6- 1- 7  108.12870271   8- 2- 9  110.96453384  10- 8-12  108.52192632

 10- 8-14  108.08997829  11- 9-13  108.52192632  11- 9-15  108.08997829  12- 8-14  107.54424578

 13- 9-15  107.54424578

 NUCLEAR CHARGE:                   42
 NUMBER OF PRIMITIVE AOS:         335
 NUMBER OF SYMMETRY AOS:          310
 NUMBER OF CONTRACTIONS:          215   ( 215A   )
 NUMBER OF CORE ORBITALS:           5   (   5A   )
 NUMBER OF VALENCE ORBITALS:       30   (  30A   )


 NUCLEAR REPULSION ENERGY  198.77359127


 Eigenvalues of metric

         1 0.262E-03 0.510E-03 0.539E-03 0.594E-03 0.697E-03 0.755E-03 0.210E-02 0.239E-02


 Contracted 2-electron integrals neglected if value below      1.0D-11
 AO integral compression algorithm  1   Integral accuracy      1.0D-11

     977.797 MB (compressed) written to integral file ( 41.7%)


 NUMBER OF SORTED TWO-ELECTRON INTEGRALS:  269595810.     BUFFER LENGTH:  32768
 NUMBER OF SEGMENTS:  17  SEGMENT LENGTH:   15999762      RECORD LENGTH: 524288

 Memory used in sort:      16.56 MW

 SORT1 READ   292827432. AND WROTE   238500613. INTEGRALS IN    690 RECORDS. CPU TIME:     3.38 SEC, REAL TIME:     7.47 SEC
 SORT2 READ   238500613. AND WROTE   269595810. INTEGRALS IN   3730 RECORDS. CPU TIME:     5.42 SEC, REAL TIME:    40.58 SEC

 FILE SIZES:   FILE 1:  1009.7 MBYTE,  FILE 4:  2894.1 MBYTE,   TOTAL:   3903.8 MBYTE

 OPERATOR DM      FOR CENTER  0  COORDINATES:    0.000000    0.000000    0.000000


 **********************************************************************************************************************************
 DATASETS  * FILE   NREC   LENGTH (MB)   RECORD NAMES
              1      19      926.27       500      610      700      900      950      970     1000      129      960     1100   
                                          VAR    BASINP    GEOM    SYMINP    ZMAT    AOBASIS   BASIS     P2S    ABASIS      S 
                                         1400     1410     1200     1210     1080     1600     1650     1300     1700   
                                           T        V       H0       H01     AOSYM     SMH    MOLCAS    ERIS     OPER   

 PROGRAMS   *        TOTAL       INT
 CPU TIMES  *        23.69     23.55
 REAL TIME  *        69.87 SEC
 DISK USED  *         3.90 GB      
 **********************************************************************************************************************************

 Density functional group LDA=DIRAC+VWN5
 Functional: DIRAC(Automatically generated (new) DIRAC)                        Gradient terms: 0
 Functional: VWN5(Automatically generated (new) VWN5)                          Gradient terms: 0
 Use grid at  1800.2

 Functional: DIRAC                     Factor:  1.0000
 Functional: VWN5                      Factor:  1.0000

 Generated new metagrid on record  1800.2 with target accuracy 1.0D-06 and 54596 points in CPU time    1.4
 Computed new grid on record 1800.1 in CPU time    1.5
   93304 words reserved for DFT integration

 PROGRAM * UKS-SCF (Unrestricted Kohn-Sham)     Authors: W. Meyer, H.-J. Werner, P.J. Knowles, 1993

 NUMBER OF ELECTRONS:      21+   21-    SPACE SYMMETRY=1    SPIN SYMMETRY: Singlet 
 CONVERGENCE THRESHOLDS:    1.00E-05 (Density)    1.00E-06 (Energy)
 MAX. NUMBER OF ITERATIONS:       60
 INTERPOLATION TYPE:            DIIS
 INTERPOLATION STEPS:              2 (START)      1 (STEP)
 LEVEL SHIFTS:                 -0.20 (ALPHA)  -0.20 (BETA) 



 Use fine grid record 1800.2 for energy threshold  1.0D-06
 Orbital guess generated from atomic densities. Full valence occupancy:   21

 Molecular orbital dump at record        2200.2

 Initial alpha occupation  21
 Initial beta  occupation  21

 ITERATION    DDIFF          GRAD             ENERGY        2-EL.EN.            DIPOLE MOMENTS         DIIS
    1      0.000D+00      0.000D+00      -231.37337313    641.150272    0.72229   -0.81163    0.00000    0
    2      0.648D-02      0.389D-02      -231.63206863    612.868855    0.19984   -0.46142    0.00000    1
    3      0.216D-02      0.231D-02      -231.72097467    621.855464    0.38004   -0.57495    0.00000    2
    4      0.519D-03      0.291D-03      -231.72250266    621.504508    0.36118   -0.50363    0.00000    3
    5      0.372D-03      0.141D-03      -231.72299032    621.488322    0.36010   -0.51433    0.00000    4
    6      0.400D-03      0.366D-04      -231.72308761    621.450774    0.35757   -0.50143    0.00000    5
    7      0.879D-04      0.135D-04      -231.72309342    621.410894    0.35542   -0.50075    0.00000    6
    8      0.415D-04      0.805D-05      -231.72309527    621.424578    0.35521   -0.50133    0.00000    7
    9      0.119D-04      0.887D-06      -231.72309533    621.423732    0.35525   -0.50074    0.00000    6
   10      0.317D-05      0.300D-06      -231.72309534    621.423131    0.35509   -0.50098    0.00000    7
   11      0.693D-06      0.133D-06      -231.72309534    621.423689    0.35512   -0.50096    0.00000    7

 Final alpha occupancy:  21
 Final beta  occupancy:  21

 !UKS STATE 1.1 Energy               -231.723095340524
 Nuclear energy                       198.77359127
 One-electron energy                 -709.35477228
 Two-electron energy                  310.71184441
 Density functional                   -31.85375874     DIRAC=-29.20465372 VWN5= -2.64910502
 Virial quotient                       -1.00782776
 !UKS STATE 1.1 Dipole moment           0.35511704    -0.50095503     0.00000000
 Dipole moment /Debye                   0.90255836    -1.27321729     0.00000000

 Orbital energies for positive spin:

         1.1          2.1          3.1          4.1          5.1          6.1          7.1          8.1          9.1         10.1
    -18.600715    -9.841474    -9.770876    -9.770870    -9.765515    -0.926540    -0.713251    -0.622848    -0.622125    -0.515031

        11.1         12.1         13.1         14.1         15.1         16.1         17.1         18.1         19.1         20.1
     -0.442934    -0.408160    -0.405622    -0.368151    -0.354839    -0.337872    -0.322880    -0.314405    -0.307544    -0.281799

        21.1         22.1         23.1
     -0.229790    -0.007613     0.039761

 Orbital energies for negative spin:

         1.1          2.1          3.1          4.1          5.1          6.1          7.1          8.1          9.1         10.1
    -18.600715    -9.841474    -9.770876    -9.770870    -9.765515    -0.926540    -0.713251    -0.622848    -0.622125    -0.515031

        11.1         12.1         13.1         14.1         15.1         16.1         17.1         18.1         19.1         20.1
     -0.442934    -0.408160    -0.405622    -0.368151    -0.354839    -0.337872    -0.322880    -0.314405    -0.307544    -0.281799

        21.1         22.1         23.1
     -0.229790    -0.007613     0.039761

 HOMO     21.1    -0.229790 =      -6.2529eV
 LUMO     22.1    -0.007613 =      -0.2072eV
 LUMO-HOMO         0.222177 =       6.0457eV

 EXPECTATION VALUE OF S**2:            -0.00000000

 Natural orbitals saved to record    2200.2 (Orbital set 3)

 Orbital spaces for UNO-CAS (Min. occupation: 0.020  Max. occupation: 1.980):

 Closed:       21
 Active:        0


 **********************************************************************************************************************************
 DATASETS  * FILE   NREC   LENGTH (MB)   RECORD NAMES
              1      20      928.02       500      610      700      900      950      970     1000      129      960     1100   
                                          VAR    BASINP    GEOM    SYMINP    ZMAT    AOBASIS   BASIS     P2S    ABASIS      S 
                                         1400     1410     1200     1210     1080     1600     1650     1300     1700     1800   
                                           T        V       H0       H01     AOSYM     SMH    MOLCAS    ERIS     OPER     GRID   

              2       5        4.89       700     1000      520     1800     2200   
                                         GEOM     BASIS   MCVARS    GRID      UKS  

 PROGRAMS   *        TOTAL       UKS       INT
 CPU TIMES  *        68.33     44.64     23.55
 REAL TIME  *       131.85 SEC
 DISK USED  *         3.90 GB      
 **********************************************************************************************************************************


 PROGRAM * Intrinsic Basis Bonding Analysis (IBBA)          Author: G. Knizia

 Molecular orbitals read from record     2200.2  Type=UKS/ALPHA (state 1.1)
 Fock matrix read from record            2200.2  Type=UKS/TOTAL (state 1.1)
 Orbital energies read from record       2200.2  Type=UKS/ALPHA (state 1.1)
 Density matrix read from record         2200.2  Type=UKS/CHARGE (state 1.1)

 Number of core orbitals:           5 (   5 )
 Number of closed-shell orbitals:  16 (  16 )

 Basis set MINAO-AUTO-PP generated.      Number of basis functions:   35 

 Polarized AO type:                A = (O Ot + (1-O)(1-Ot)) P12
 Orthogonalization method:         Symmetric (Loewdin)
 Localization functional:          L = sum[A,i] <i|n_A|i>^4 -> max

 Localization group 1:  21 orbitals, occupancy  2.000
 Iterative localization: IB/PM,    7 iter; Final gradient 0.63E-08

 Bond order analysis:       [THRPRINT= 0.020]

   CEN ATOM   CEN ATOM     WIBERG.BO      RENORM.BO
     1   C  -   2   C       0.995907       0.991644
     1   C  -   5   H       0.955070       0.985552
     1   C  -   6   H       0.950045       0.979276
     1   C  -   7   H       0.950045       0.979276

     2   C  -   1   C       0.995907       0.991644
     2   C  -   9   C       0.994872       0.972598
     2   C  -   8   C       0.994872       0.972598
     2   C  -   3   O       0.937874       0.939965

     3   O  -   2   C       0.937874       0.939965
     3   O  -   4   H       0.856507       0.971931
     3   O  -   8   C       0.031331       0.016083
     3   O  -   9   C       0.031331       0.016083

     4   H  -   3   O       0.856507       0.971931

     5   H  -   1   C       0.955070       0.985552

     6   H  -   1   C       0.950045       0.979276

     7   H  -   1   C       0.950045       0.979276

     8   C  -   2   C       0.994872       0.972598
     8   C  -  14   H       0.954623       0.980023
     8   C  -  10   H       0.950697       0.979123
     8   C  -  12   H       0.950066       0.978724
     8   C  -   3   O       0.031331       0.016083

     9   C  -   2   C       0.994872       0.972598
     9   C  -  15   H       0.954623       0.980023
     9   C  -  11   H       0.950697       0.979123
     9   C  -  13   H       0.950066       0.978724
     9   C  -   3   O       0.031331       0.016083

    10   H  -   8   C       0.950697       0.979123

    11   H  -   9   C       0.950697       0.979123

    12   H  -   8   C       0.950066       0.978724

    13   H  -   9   C       0.950066       0.978724

    14   H  -   8   C       0.954623       0.980023

    15   H  -   9   C       0.954623       0.980023


 Valency analysis:

   CEN ATOM   TOT.VALENCE
     1   C       3.919481
     2   C       3.936598
     3   O       1.934577
     4   H       0.878985
     5   H       0.976922
     6   H       0.974159
     7   H       0.974159
     8   C       3.922486
     9   C       3.922486
    10   H       0.974190
    11   H       0.974190
    12   H       0.976051
    13   H       0.976051
    14   H       0.978850
    15   H       0.978850

 Total charge composition:

   CEN ATOM         s          p       ELECTRONS ->P.CHARGE
     1   C       3.03908    3.42621      6.46529   -0.46529
     2   C       2.92937    2.82839      5.75775    0.24225
     3   O       3.64360    4.91838      8.56197   -0.56197
     4   H       0.65213                 0.65213    0.34787
     5   H       0.84808                 0.84808    0.15192
     6   H       0.83925                 0.83925    0.16075
     7   H       0.83925                 0.83925    0.16075
     8   C       3.04591    3.43307      6.47897   -0.47897
     9   C       3.04591    3.43307      6.47897   -0.47897
    10   H       0.83935                 0.83935    0.16065
    11   H       0.83935                 0.83935    0.16065
    12   H       0.84525                 0.84525    0.15475
    13   H       0.84525                 0.84525    0.15475
    14   H       0.85457                 0.85457    0.14543
    15   H       0.85457                 0.85457    0.14543

 Total charge composition, AO contributions:

   CEN ATOM SHL      SPHERICAL COMPONENTS
     1   C  1s       1.99211
     1   C  2s       1.04697
     1   C  2p       1.04890    1.18217    1.19514

     2   C  1s       1.99366
     2   C  2s       0.93570
     2   C  2p       1.01301    0.79971    1.01567

     3   O  1s       1.99739
     3   O  2s       1.64620
     3   O  2p       1.47931    1.48865    1.95041

     4   H  1s       0.65213

     5   H  1s       0.84808

     6   H  1s       0.83925

     7   H  1s       0.83925

     8   C  1s       1.99220
     8   C  2s       1.05370
     8   C  2p       1.16278    1.16258    1.10771

     9   C  1s       1.99220
     9   C  2s       1.05370
     9   C  2p       1.16278    1.16258    1.10771

    10   H  1s       0.83935

    11   H  1s       0.83935

    12   H  1s       0.84525

    13   H  1s       0.84525

    14   H  1s       0.85457

    15   H  1s       0.85457

 Summary of localized orbital composition:   [THRPRINT= 0.020]

   ORB  GRP  ORB.ENERGY      CENTERS/CHARGES
     1   1   -18.453600      O  3   2.000
     2   1    -9.754076      C  2   2.000
     3   1    -9.661223      C  9   2.000
     4   1    -9.661223      C  8   2.000
     5   1    -9.655097      C  1   2.000
     6   1    -0.699509      O  3   1.351   H  4   0.639
     7   1    -0.661856      O  3   1.277   C  2   0.704
     8   1    -0.523117      C  9   1.008   C  2   0.976
     9   1    -0.523117      C  8   1.008   C  2   0.976
    10   1    -0.522499      C  1   0.990   C  2   0.983   (other: 0.026)
    11   1    -0.500802      O  3   1.979   (other: 0.021)
    12   1    -0.454451      C  8   1.149   H 12   0.834
    13   1    -0.454451      C  9   1.149   H 13   0.834
    14   1    -0.453406      C  9   1.140   H 15   0.846
    15   1    -0.453406      C  8   1.140   H 14   0.846
    16   1    -0.450150      C  1   1.144   H  5   0.840
    17   1    -0.448212      C  8   1.158   H 10   0.830
    18   1    -0.448212      C  9   1.158   H 11   0.830
    19   1    -0.443553      C  1   1.157   H  7   0.830
    20   1    -0.443553      C  1   1.157   H  6   0.830
    21   1    -0.257654      O  3   1.950   (other: 0.050)

 Localized orbitals saved to record      2200.2  (orbital set 4)


 **********************************************************************************************************************************
 DATASETS  * FILE   NREC   LENGTH (MB)   RECORD NAMES
              1      20      928.02       500      610      700      900      950      970     1000      129      960     1100   
                                          VAR    BASINP    GEOM    SYMINP    ZMAT    AOBASIS   BASIS     P2S    ABASIS      S 
                                         1400     1410     1200     1210     1080     1600     1650     1300     1700     1800   
                                           T        V       H0       H01     AOSYM     SMH    MOLCAS    ERIS     OPER     GRID   

              2       5        5.27       700     1000      520     1800     2200   
                                         GEOM     BASIS   MCVARS    GRID      UKS  

 PROGRAMS   *        TOTAL      IBBA       UKS       INT
 CPU TIMES  *        68.39      0.06     44.64     23.55
 REAL TIME  *       132.00 SEC
 DISK USED  *         3.90 GB      
 **********************************************************************************************************************************
 Molecular orbitals read from record     2200.2  Type=UKS/LOCAL(IBO)  
 Occupation numbers read from record     2200.2  Type=UKS/LOCAL(IBO)  
 Orbital energies read from record       2200.2  Type=UKS/LOCAL(IBO)  
 Redundancy group numbers read from rec  2200.2  Type=UKS/BETA (state 1.1)

 IBBA/TZVP energy=      0.000000000000

        UKS-SCF 
   -231.72309534
 **********************************************************************************************************************************
 Molpro calculation terminated
