
 Primary working directories    : /local
 Secondary working directories  : /local
 Wavefunction directory         : /local/
 Main file repository           : /local/

 SHA1      : b4a5b34a9e711420743f49e6833241d17c61fb3c
 NAME      : 2099.9.b4a5b34
 ARCHNAME  : linux/x86_64_openmp
 FC        : /cm/shared/languages/GCC-6.1/bin/gfortran
 BLASLIB   : -lblas
 id        : simonbennie

 Nodes     nprocs
 node34-015    1

 Using customized tuning parameters: mindgm=1; mindgv=20; mindgc=4; mindgr=1; noblas=0; minvec=7
 default implementation of scratch files=df  

 memory,500,m
 geomtyp=xyz
 nosym
 noorient
 geometry={
 C         -1.53233        0.02247        0.00000
 C         -0.00192        0.01421        0.00000
 O          0.37239        1.40356        0.00000
 H          1.34248        1.44036        0.00000
 H         -1.92991       -0.99819        0.00000
 H         -1.90797        0.54382       -0.88653
 H         -1.90797        0.54382        0.88653
 C          0.54303       -0.66466       -1.26580
 C          0.54303       -0.66466        1.26580
 H          0.17836       -0.14752       -2.15943
 H          0.17836       -0.14752        2.15943
 H          0.23752       -1.71600       -1.32280
 H          0.23752       -1.71600        1.32280
 H          1.64084       -0.63767       -1.28032
 H          1.64084       -0.63767        1.28032
 }
 basis={ default,tzvp }
 {uks,LYP88,direct;wf,42,1,0}
 {ibba,bonds=1}

 Variables initialized (895), CPU time= 0.01 sec
 Commands  initialized (725), CPU time= 0.01 sec, 591 directives.
 Default parameters read. Elapsed time= 0.08 sec

 Checking input...
 Passed
1


                                         ***  PROGRAM SYSTEM MOLPRO  ***
                                       Copyright, TTI GmbH Stuttgart, 2015
                                    Version 2099.9 linked May 26 2017 16:03:21


 **********************************************************************************************************************************
 LABEL *                                                                                 
  64 bit serial version                                                                  DATE: 12-Jun-17          TIME: 19:33:45  
 **********************************************************************************************************************************

 SHA1:             b4a5b34a9e711420743f49e6833241d17c61fb3c
 **********************************************************************************************************************************
 SETTING GEOMTYP        =    XYZ

 Variable memory set to  500000000 words,  buffer space 

 ZSYMEL=NOSYM

 SETTING BASIS          =    TZVP


 Recomputing integrals since basis changed


 Using spherical harmonics

 Library entry C      S def2-TZVP            selected for orbital group  1
 Library entry C      P def2-TZVP            selected for orbital group  1
 Library entry C      D def2-TZVP            selected for orbital group  1
 Library entry C      F def2-TZVP            selected for orbital group  1
 Library entry O      S def2-TZVP            selected for orbital group  2
 Library entry O      P def2-TZVP            selected for orbital group  2
 Library entry O      D def2-TZVP            selected for orbital group  2
 Library entry O      F def2-TZVP            selected for orbital group  2
 Library entry H      S def2-TZVP            selected for orbital group  3
 Library entry H      P def2-TZVP            selected for orbital group  3


 PROGRAM * SEWARD (Integral evaluation for generally contracted gaussian basis sets)     Author: Roland Lindh, 1990

 Geometry written to block  1 of record 700


 Point group  C1  



 ATOMIC COORDINATES

 NR  ATOM    CHARGE       X              Y              Z

   1  C       6.00   -2.895684032    0.042462146    0.000000000
   2  C       6.00   -0.003628274    0.026853008    0.000000000
   3  O       8.00    0.703715112    2.652343999    0.000000000
   4  H       1.00    2.536919528    2.721885921    0.000000000
   5  H       1.00   -3.647001345   -1.886305720    0.000000000
   6  H       1.00   -3.605540754    1.027670861   -1.675298901
   7  H       1.00   -3.605540754    1.027670861    1.675298901
   8  C       6.00    1.026177977   -1.256025366   -2.392015328
   9  C       6.00    1.026177977   -1.256025366    2.392015328
  10  H       1.00    0.337051552   -0.278772398   -4.080731285
  11  H       1.00    0.337051552   -0.278772398    4.080731285
  12  H       1.00    0.448847749   -3.242770030   -2.499729718
  13  H       1.00    0.448847749   -3.242770030    2.499729718
  14  H       1.00    3.100738214   -1.205021658   -2.419454152
  15  H       1.00    3.100738214   -1.205021658    2.419454152

 Bond lengths in Bohr (Angstrom)

 1-2  2.892097881  1-5  2.069933136  1-6  2.069096224  1-7  2.069096224  2-3  2.719106031
     ( 1.530432290)     ( 1.095361444)     ( 1.094918569)     ( 1.094918569)     ( 1.438888946)

  2- 8  2.903104402   2- 9  2.903104402   3- 4  1.834522965   8-10  2.069222119   8-12  2.071730422
       ( 1.536256691)       ( 1.536256691)       ( 0.970787746)       ( 1.094985190)       ( 1.096312526)

  8-14  2.075368508   9-11  2.069222119   9-13  2.071730422   9-15  2.075368508
       ( 1.098237719)       ( 1.094985190)       ( 1.096312526)       ( 1.098237719)

 Bond angles

  1-2-3  104.76902697   1-2-8  110.92255387   1-2-9  110.92255387   2-1-5  110.97328220

  2- 1- 6  110.22090701   2- 1- 7  110.22090701   2- 3- 4  107.25071562   2- 8-10  110.21836376

  2- 8-12  111.57747468   2- 8-14  110.77023896   2- 9-11  110.21836376   2- 9-13  111.57747468

  2- 9-15  110.77023896   3- 2- 8  109.53648747   3- 2- 9  109.53648747   5- 1- 6  108.61190457

  5- 1- 7  108.61190457   6- 1- 7  108.12870271   8- 2- 9  110.96453384  10- 8-12  108.52192632

 10- 8-14  108.08997829  11- 9-13  108.52192632  11- 9-15  108.08997829  12- 8-14  107.54424578

 13- 9-15  107.54424578

 NUCLEAR CHARGE:                   42
 NUMBER OF PRIMITIVE AOS:         335
 NUMBER OF SYMMETRY AOS:          310
 NUMBER OF CONTRACTIONS:          215   ( 215A   )
 NUMBER OF CORE ORBITALS:           5   (   5A   )
 NUMBER OF VALENCE ORBITALS:       30   (  30A   )


 NUCLEAR REPULSION ENERGY  198.77359127


 Eigenvalues of metric

         1 0.262E-03 0.510E-03 0.539E-03 0.594E-03 0.697E-03 0.755E-03 0.210E-02 0.239E-02


 Contracted 2-electron integrals neglected if value below      1.0D-11
 AO integral compression algorithm  1   Integral accuracy      1.0D-11

     977.797 MB (compressed) written to integral file ( 41.7%)


 NUMBER OF SORTED TWO-ELECTRON INTEGRALS:  269595810.     BUFFER LENGTH:  32768
 NUMBER OF SEGMENTS:  17  SEGMENT LENGTH:   15999762      RECORD LENGTH: 524288

 Memory used in sort:      16.56 MW

 SORT1 READ   292827432. AND WROTE   238500613. INTEGRALS IN    690 RECORDS. CPU TIME:     3.40 SEC, REAL TIME:     7.37 SEC
 SORT2 READ   238500613. AND WROTE   269595810. INTEGRALS IN   3730 RECORDS. CPU TIME:     5.62 SEC, REAL TIME:     7.39 SEC

 FILE SIZES:   FILE 1:  1009.7 MBYTE,  FILE 4:  2894.1 MBYTE,   TOTAL:   3903.8 MBYTE

 OPERATOR DM      FOR CENTER  0  COORDINATES:    0.000000    0.000000    0.000000


 **********************************************************************************************************************************
 DATASETS  * FILE   NREC   LENGTH (MB)   RECORD NAMES
              1      19      926.27       500      610      700      900      950      970     1000      129      960     1100   
                                          VAR    BASINP    GEOM    SYMINP    ZMAT    AOBASIS   BASIS     P2S    ABASIS      S 
                                         1400     1410     1200     1210     1080     1600     1650     1300     1700   
                                           T        V       H0       H01     AOSYM     SMH    MOLCAS    ERIS     OPER   

 PROGRAMS   *        TOTAL       INT
 CPU TIMES  *        25.78     25.64
 REAL TIME  *        60.43 SEC
 DISK USED  *         3.90 GB      
 **********************************************************************************************************************************

 Density functional group LYP88=LYP
 Functional: LYP(Automatically generated (new) LYP)                            Gradient terms: 1
 Use grid at  1800.2

 Functional: LYP                       Factor:  1.0000

 Generated new metagrid on record  1800.2 with target accuracy 1.0D-06 and 54596 points in CPU time    1.6
 Computed new grid on record 1800.1 in CPU time    1.8
  175219 words reserved for DFT integration

 PROGRAM * UKS-SCF (Unrestricted Kohn-Sham)     Authors: W. Meyer, H.-J. Werner, P.J. Knowles, 1993

 NUMBER OF ELECTRONS:      21+   21-    SPACE SYMMETRY=1    SPIN SYMMETRY: Singlet 
 CONVERGENCE THRESHOLDS:    1.00E-05 (Density)    1.00E-06 (Energy)
 MAX. NUMBER OF ITERATIONS:       60
 INTERPOLATION TYPE:            DIIS
 INTERPOLATION STEPS:              2 (START)      1 (STEP)
 LEVEL SHIFTS:                 -0.20 (ALPHA)  -0.20 (BETA) 



 Use fine grid record 1800.2 for energy threshold  1.0D-06
 Orbital guess generated from atomic densities. Full valence occupancy:   21

 Molecular orbital dump at record        2200.2

 Initial alpha occupation  21
 Initial beta  occupation  21

 ITERATION    DDIFF          GRAD             ENERGY        2-EL.EN.            DIPOLE MOMENTS         DIIS
    1      0.000D+00      0.000D+00      -199.55796085    543.806120    2.10163    7.47599    0.00000    0
    2      0.786D+00      0.991D-02      -197.33398103    647.946301   -0.87662   -7.50955   -0.00000    1
    3      0.148D-01      0.184D-01      -201.62181759    611.520214   -0.13909   -2.94053   -0.00000    2
    4      0.682D-02      0.567D-02      -202.15789774    596.697482    0.07946   -1.32198   -0.00000    3
    5      0.437D-02      0.170D-02      -202.22123045    592.469136    0.23707   -0.40490   -0.00000    4
    6      0.644D-02      0.411D-03      -202.22791429    590.648620    0.31161   -0.06157    0.00000    5
    7      0.657D-02      0.244D-03      -202.22996016    590.949824    0.30111   -0.05195    0.00000    6
    8      0.318D-02      0.106D-03      -202.23036041    591.285444    0.31549   -0.04289   -0.00000    7
    9      0.194D-02      0.463D-04      -202.23045222    591.260765    0.30537   -0.05959   -0.00000    8
   10      0.612D-03      0.180D-04      -202.23046460    591.306852    0.30527   -0.05897   -0.00000    9
   11      0.243D-03      0.478D-05      -202.23046634    591.288693    0.30621   -0.05562    0.00000    8
   12      0.110D-03      0.203D-05      -202.23046666    591.293454    0.30530   -0.05610   -0.00000    8
   13      0.370D-04      0.120D-05      -202.23046671    591.292297    0.30541   -0.05639   -0.00000    8
   14      0.141D-04      0.340D-06      -202.23046672    591.292336    0.30533   -0.05616   -0.00000    9
   15      0.408D-05      0.960D-07      -202.23046672    591.292219    0.30529   -0.05619   -0.00000    8
   16      0.134D-05      0.441D-07      -202.23046672    591.292192    0.30529   -0.05618   -0.00000    8

 Final alpha occupancy:  21
 Final beta  occupancy:  21

 !UKS STATE 1.1 Energy               -202.230466720716
 Nuclear energy                       198.77359127
 One-electron energy                 -695.30629249
 Two-electron energy                  295.64609614
 Density functional                    -1.34386165     LYP=-1.34386165
 Virial quotient                       -0.97018355
 !UKS STATE 1.1 Dipole moment           0.30528643    -0.05617997    -0.00000000
 Dipole moment /Debye                   0.77590990    -0.14278589    -0.00000000

 Orbital energies for positive spin:

         1.1          2.1          3.1          4.1          5.1          6.1          7.1          8.1          9.1         10.1
    -16.742268    -8.361838    -8.317295    -8.317262    -8.315223    -0.617272    -0.426462    -0.338902    -0.336245    -0.231275

        11.1         12.1         13.1         14.1         15.1         16.1         17.1         18.1         19.1         20.1
     -0.175922    -0.149848    -0.149516    -0.105781    -0.093867    -0.072562    -0.047889    -0.045167    -0.041047    -0.011646

        21.1         22.1         23.1
      0.040630     0.122946     0.172860

 Orbital energies for negative spin:

         1.1          2.1          3.1          4.1          5.1          6.1          7.1          8.1          9.1         10.1
    -16.742268    -8.361838    -8.317295    -8.317262    -8.315223    -0.617272    -0.426462    -0.338902    -0.336245    -0.231275

        11.1         12.1         13.1         14.1         15.1         16.1         17.1         18.1         19.1         20.1
     -0.175922    -0.149848    -0.149516    -0.105781    -0.093867    -0.072562    -0.047889    -0.045167    -0.041047    -0.011646

        21.1         22.1         23.1
      0.040630     0.122946     0.172860

 HOMO     21.1     0.040630 =       1.1056eV
 LUMO     22.1     0.122946 =       3.3455eV
 LUMO-HOMO         0.082316 =       2.2399eV

 EXPECTATION VALUE OF S**2:            -0.00000000

 Natural orbitals saved to record    2200.2 (Orbital set 3)

 Orbital spaces for UNO-CAS (Min. occupation: 0.020  Max. occupation: 1.980):

 Closed:       21
 Active:        0


 **********************************************************************************************************************************
 DATASETS  * FILE   NREC   LENGTH (MB)   RECORD NAMES
              1      20      928.02       500      610      700      900      950      970     1000      129      960     1100   
                                          VAR    BASINP    GEOM    SYMINP    ZMAT    AOBASIS   BASIS     P2S    ABASIS      S 
                                         1400     1410     1200     1210     1080     1600     1650     1300     1700     1800   
                                           T        V       H0       H01     AOSYM     SMH    MOLCAS    ERIS     OPER     GRID   

              2       5        4.89       700     1000      520     1800     2200   
                                         GEOM     BASIS   MCVARS    GRID      UKS  

 PROGRAMS   *        TOTAL       UKS       INT
 CPU TIMES  *       127.88    102.10     25.64
 REAL TIME  *       175.33 SEC
 DISK USED  *         3.90 GB      
 **********************************************************************************************************************************


 PROGRAM * Intrinsic Basis Bonding Analysis (IBBA)          Author: G. Knizia

 Molecular orbitals read from record     2200.2  Type=UKS/ALPHA (state 1.1)
 Fock matrix read from record            2200.2  Type=UKS/TOTAL (state 1.1)
 Orbital energies read from record       2200.2  Type=UKS/ALPHA (state 1.1)
 Density matrix read from record         2200.2  Type=UKS/CHARGE (state 1.1)

 Number of core orbitals:           5 (   5 )
 Number of closed-shell orbitals:  16 (  16 )

 Basis set MINAO-AUTO-PP generated.      Number of basis functions:   35 

 Polarized AO type:                A = (O Ot + (1-O)(1-Ot)) P12
 Orthogonalization method:         Symmetric (Loewdin)
 Localization functional:          L = sum[A,i] <i|n_A|i>^4 -> max

 Localization group 1:  21 orbitals, occupancy  2.000
 Iterative localization: IB/PM,    8 iter; Final gradient 0.81E-09

 Bond order analysis:       [THRPRINT= 0.020]

   CEN ATOM   CEN ATOM     WIBERG.BO      RENORM.BO
     1   C  -   2   C       0.982782       0.996193
     1   C  -   5   H       0.954844       0.968079
     1   C  -   6   H       0.947888       0.952801
     1   C  -   7   H       0.947888       0.952801
     1   C  -   3   O       0.032541       0.018136
     1   C  -   4   H       0.026033       0.032082
     1   C  -  14   H       0.021200       0.022260
     1   C  -  15   H       0.021200       0.022260

     2   C  -   8   C       0.988011       0.972510
     2   C  -   9   C       0.988011       0.972510
     2   C  -   1   C       0.982782       0.996193
     2   C  -   3   O       0.974042       0.943591

     3   O  -   2   C       0.974042       0.943591
     3   O  -   4   H       0.909130       0.931030
     3   O  -   9   C       0.053718       0.029003
     3   O  -   8   C       0.053718       0.029003
     3   O  -  13   H       0.037153       0.026232
     3   O  -  12   H       0.037153       0.026232
     3   O  -   1   C       0.032541       0.018136
     3   O  -   5   H       0.022211       0.016959

     4   H  -   3   O       0.909130       0.931030
     4   H  -   1   C       0.026033       0.032082

     5   H  -   1   C       0.954844       0.968079
     5   H  -   3   O       0.022211       0.016959

     6   H  -   1   C       0.947888       0.952801
     6   H  -   9   C       0.024079       0.024847

     7   H  -   1   C       0.947888       0.952801
     7   H  -   8   C       0.024079       0.024847

     8   C  -   2   C       0.988011       0.972510
     8   C  -  10   H       0.948911       0.952359
     8   C  -  14   H       0.947824       0.957680
     8   C  -  12   H       0.945775       0.949564
     8   C  -   3   O       0.053718       0.029003
     8   C  -   7   H       0.024079       0.024847
     8   C  -  11   H       0.023807       0.024549

     9   C  -   2   C       0.988011       0.972510
     9   C  -  11   H       0.948911       0.952359
     9   C  -  15   H       0.947824       0.957680
     9   C  -  13   H       0.945775       0.949564
     9   C  -   3   O       0.053718       0.029003
     9   C  -   6   H       0.024079       0.024847
     9   C  -  10   H       0.023807       0.024549

    10   H  -   8   C       0.948911       0.952359
    10   H  -   9   C       0.023807       0.024549

    11   H  -   9   C       0.948911       0.952359
    11   H  -   8   C       0.023807       0.024549

    12   H  -   8   C       0.945775       0.949564
    12   H  -   3   O       0.037153       0.026232

    13   H  -   9   C       0.945775       0.949564
    13   H  -   3   O       0.037153       0.026232

    14   H  -   8   C       0.947824       0.957680
    14   H  -   1   C       0.021200       0.022260

    15   H  -   9   C       0.947824       0.957680
    15   H  -   1   C       0.021200       0.022260


 Valency analysis:

   CEN ATOM   TOT.VALENCE
     1   C       3.966482
     2   C       3.951352
     3   O       2.145626
     4   H       0.960888
     5   H       0.995779
     6   H       0.995680
     7   H       0.995680
     8   C       3.967465
     9   C       3.967465
    10   H       0.995643
    11   H       0.995643
    12   H       0.996125
    13   H       0.996125
    14   H       0.996958
    15   H       0.996958

 Total charge composition:

   CEN ATOM         s          p       ELECTRONS ->P.CHARGE
     1   C       2.94746    3.27385      6.22131   -0.22131
     2   C       2.87028    2.86357      5.73385    0.26615
     3   O       3.57676    4.74373      8.32049   -0.32049
     4   H       0.80223                 0.80223    0.19777
     5   H       0.93503                 0.93503    0.06497
     6   H       0.93427                 0.93427    0.06573
     7   H       0.93427                 0.93427    0.06573
     8   C       2.96500    3.27769      6.24269   -0.24269
     9   C       2.96500    3.27769      6.24269   -0.24269
    10   H       0.93399                 0.93399    0.06601
    11   H       0.93399                 0.93399    0.06601
    12   H       0.93775                 0.93775    0.06225
    13   H       0.93775                 0.93775    0.06225
    14   H       0.94485                 0.94485    0.05515
    15   H       0.94485                 0.94485    0.05515

 Total charge composition, AO contributions:

   CEN ATOM SHL      SPHERICAL COMPONENTS
     1   C  1s       1.99709
     1   C  2s       0.95038
     1   C  2p       1.03007    1.11657    1.12721

     2   C  1s       1.99780
     2   C  2s       0.87248
     2   C  2p       1.00783    0.84466    1.01109

     3   O  1s       1.99875
     3   O  2s       1.57801
     3   O  2p       1.36895    1.46721    1.90757

     4   H  1s       0.80223

     5   H  1s       0.93503

     6   H  1s       0.93427

     7   H  1s       0.93427

     8   C  1s       1.99713
     8   C  2s       0.96787
     8   C  2p       1.09964    1.10683    1.07122

     9   C  1s       1.99713
     9   C  2s       0.96787
     9   C  2p       1.09964    1.10683    1.07122

    10   H  1s       0.93399

    11   H  1s       0.93399

    12   H  1s       0.93775

    13   H  1s       0.93775

    14   H  1s       0.94485

    15   H  1s       0.94485

 Summary of localized orbital composition:   [THRPRINT= 0.020]

   ORB  GRP  ORB.ENERGY      CENTERS/CHARGES
     1   1   -16.643033      O  3   2.000
     2   1    -8.290836      C  2   2.000
     3   1    -8.233046      C  9   2.000
     4   1    -8.233046      C  8   2.000
     5   1    -8.230690      C  1   2.000
     6   1    -0.396981      O  3   1.225   C  2   0.749   (other: 0.026)
     7   1    -0.369292      O  3   1.213   H  4   0.770
     8   1    -0.252899      C  1   1.002   C  2   0.950   (other: 0.049)
     9   1    -0.250532      C  9   1.026   C  2   0.944   (other: 0.030)
    10   1    -0.250532      C  8   1.026   C  2   0.944   (other: 0.030)
    11   1    -0.174893      C  8   1.044   H 14   0.930   (other: 0.025)
    12   1    -0.174893      C  9   1.044   H 15   0.930   (other: 0.025)
    13   1    -0.173367      C  9   1.060   H 13   0.917   (other: 0.023)
    14   1    -0.173367      C  8   1.060   H 12   0.917   (other: 0.023)
    15   1    -0.172488      O  3   1.963   (other: 0.037)
    16   1    -0.171841      C  1   1.056   H  5   0.921   (other: 0.023)
    17   1    -0.169119      C  9   1.064   H 11   0.917
    18   1    -0.169119      C  8   1.064   H 10   0.917
    19   1    -0.167661      C  1   1.063   H  6   0.917   (other: 0.020)
    20   1    -0.167661      C  1   1.063   H  7   0.917   (other: 0.020)
    21   1     0.008626      O  3   1.908   C  2   0.028   (other: 0.065)

 Localized orbitals saved to record      2200.2  (orbital set 4)


 **********************************************************************************************************************************
 DATASETS  * FILE   NREC   LENGTH (MB)   RECORD NAMES
              1      20      928.02       500      610      700      900      950      970     1000      129      960     1100   
                                          VAR    BASINP    GEOM    SYMINP    ZMAT    AOBASIS   BASIS     P2S    ABASIS      S 
                                         1400     1410     1200     1210     1080     1600     1650     1300     1700     1800   
                                           T        V       H0       H01     AOSYM     SMH    MOLCAS    ERIS     OPER     GRID   

              2       5        5.27       700     1000      520     1800     2200   
                                         GEOM     BASIS   MCVARS    GRID      UKS  

 PROGRAMS   *        TOTAL      IBBA       UKS       INT
 CPU TIMES  *       127.95      0.07    102.10     25.64
 REAL TIME  *       175.91 SEC
 DISK USED  *         3.90 GB      
 **********************************************************************************************************************************
 Molecular orbitals read from record     2200.2  Type=UKS/LOCAL(IBO)  
 Occupation numbers read from record     2200.2  Type=UKS/LOCAL(IBO)  
 Orbital energies read from record       2200.2  Type=UKS/LOCAL(IBO)  
 Redundancy group numbers read from rec  2200.2  Type=UKS/BETA (state 1.1)

 IBBA/TZVP energy=      0.000000000000

        UKS-SCF 
   -202.23046672
 **********************************************************************************************************************************
 Molpro calculation terminated
