
 Primary working directories    : /tmp/sb13343
 Secondary working directories  : /tmp/sb13343
 Wavefunction directory         : /panfs/panasas01/chem/sb13343/wfu/
 Main file repository           : /tmp/sb13343/

 SHA1      : b4a5b34a9e711420743f49e6833241d17c61fb3c
 NAME      : 2099.9.b4a5b34
 ARCHNAME  : linux/x86_64_openmp
 FC        : /cm/shared/languages/GCC-6.1/bin/gfortran
 BLASLIB   : -lblas
 id        : simonbennie

 Nodes     nprocs
 node32-007    1

 Using customized tuning parameters: mindgm=1; mindgv=20; mindgc=4; mindgr=1; noblas=0; minvec=7
 default implementation of scratch files=df  

 memory,500,m
 geomtyp=xyz
 nosym
 noorient
 geometry={
 C          0.00000        0.00000        0.00000
 C          0.00000        0.00000        1.53307
 O          1.40344        0.00000        1.86307
 C          1.76314        0.00000        3.22887
 H         -1.02289        0.00000       -0.39176
 H          0.51995       -0.88625       -0.37815
 H          0.51995        0.88625       -0.37815
 H          2.85677        0.00000        3.25413
 H          1.40708       -0.89217        3.76475
 H          1.40708        0.89217        3.76475
 C         -0.69252       -1.26694        2.06222
 C         -0.69252        1.26694        2.06222
 H         -0.15366       -2.16088        1.72982
 H         -0.15366        2.16088        1.72982
 H         -1.72011       -1.32515        1.68649
 H         -1.72011        1.32515        1.68649
 H         -0.74365       -1.28188        3.15638
 H         -0.74365        1.28188        3.15638
 }
 basis={ default,svp }
 {ks,SOGGA,direct;wf,50,1,0}
 {ibba,bonds=1}

 Variables initialized (895), CPU time= 0.00 sec
 Commands  initialized (725), CPU time= 0.02 sec, 591 directives.
 Default parameters read. Elapsed time= 0.08 sec

 Checking input...
 Passed
1


                                         ***  PROGRAM SYSTEM MOLPRO  ***
                                       Copyright, TTI GmbH Stuttgart, 2015
                                    Version 2099.9 linked May 26 2017 16:03:21


 **********************************************************************************************************************************
 LABEL *                                                                                 
  64 bit serial version                                                                  DATE: 09-Jun-17          TIME: 01:59:56  
 **********************************************************************************************************************************

 SHA1:             b4a5b34a9e711420743f49e6833241d17c61fb3c
 **********************************************************************************************************************************
 SETTING GEOMTYP        =    XYZ

 Variable memory set to  500000000 words,  buffer space 

 ZSYMEL=NOSYM

 SETTING BASIS          =    SVP


 Recomputing integrals since basis changed


 Using spherical harmonics

 Library entry C      S def2-SVP             selected for orbital group  1
 Library entry C      P def2-SVP             selected for orbital group  1
 Library entry C      D def2-SVP             selected for orbital group  1
 Library entry O      S def2-SVP             selected for orbital group  2
 Library entry O      P def2-SVP             selected for orbital group  2
 Library entry O      D def2-SVP             selected for orbital group  2
 Library entry H      S def2-SVP             selected for orbital group  4
 Library entry H      P def2-SVP             selected for orbital group  4


 PROGRAM * SEWARD (Integral evaluation for generally contracted gaussian basis sets)     Author: Roland Lindh, 1990

 Geometry written to block  1 of record 700


 Point group  C1  



 ATOMIC COORDINATES

 NR  ATOM    CHARGE       X              Y              Z

   1  C       6.00    0.000000000    0.000000000    0.000000000
   2  C       6.00    0.000000000    0.000000000    2.897082430
   3  O       8.00    2.652117232    0.000000000    3.520692051
   4  C       6.00    3.331851719    0.000000000    6.101679992
   5  H       1.00   -1.932981956    0.000000000   -0.740319107
   6  H       1.00    0.982563098   -1.674769778   -0.714599934
   7  H       1.00    0.982563098    1.674769778   -0.714599934
   8  H       1.00    5.398512901    0.000000000    6.149414474
   9  H       1.00    2.658995835   -1.685956957    7.114346427
  10  H       1.00    2.658995835    1.685956957    7.114346427
  11  C       6.00   -1.308673136   -2.394169616    3.897031009
  12  C       6.00   -1.308673136    2.394169616    3.897031009
  13  H       1.00   -0.290375316   -4.083471388    3.268886045
  14  H       1.00   -0.290375316    4.083471388    3.268886045
  15  H       1.00   -3.250536804   -2.504170574    3.187004212
  16  H       1.00   -3.250536804    2.504170574    3.187004212
  17  H       1.00   -1.405294833   -2.422402125    5.964693745
  18  H       1.00   -1.405294833    2.422402125    5.964693745

 Bond lengths in Bohr (Angstrom)

 1-2  2.897082430  1-5  2.069901355  1-6  2.069042560  1-7  2.069042560  2-3  2.724447609
     ( 1.533070000)     ( 1.095344626)     ( 1.094890171)     ( 1.094890171)     ( 1.441715587)

  2-11  2.905954351   2-12  2.905954351   3- 4  2.668995640   4- 8  2.067212379   4- 9  2.078624355
       ( 1.537764818)       ( 1.537764818)       ( 1.412371669)       ( 1.093921681)       ( 1.099960639)

  4-10  2.078624355  11-13  2.070081404  11-15  2.070524757  11-17  2.070111596  12-14  2.070081404
       ( 1.099960639)       ( 1.095439904)       ( 1.095674516)       ( 1.095455880)       ( 1.095439904)

 12-16  2.070524757  12-18  2.070111596
       ( 1.095674516)       ( 1.095455880)

 Bond angles

  1- 2- 3  103.23196371   1- 2-11  110.12706952   1- 2-12  110.12706952   2- 1- 5  110.95650426

  2- 1- 6  110.20481748   2- 1- 7  110.20481748   2- 3- 4  117.98647004   2-11-13  110.26679927

  2-11-15  110.37287188   2-11-17  112.08316935   2-12-14  110.26679927   2-12-16  110.37287188

  2-12-18  112.08316935   3- 2-11  111.07703285   3- 2-12  111.07703285   3- 4- 8  106.07765410

  3- 4- 9  112.87219182   3- 4-10  112.87219182   5- 1- 6  108.65976572   5- 1- 7  108.65976572

  6- 1- 7  108.08288210   8- 4- 9  108.20190897   8- 4-10  108.20190897   9- 4-10  108.40564999

 11- 2-12  110.95103964  13-11-15  108.29648994  13-11-17  108.35544687  14-12-16  108.29648994

 14-12-18  108.35544687  15-11-17  107.33851825  16-12-18  107.33851825

 NUCLEAR CHARGE:                   50
 NUMBER OF PRIMITIVE AOS:         234
 NUMBER OF SYMMETRY AOS:          228
 NUMBER OF CONTRACTIONS:          144   ( 144A   )
 NUMBER OF CORE ORBITALS:           6   (   6A   )
 NUMBER OF VALENCE ORBITALS:       36   (  36A   )


 NUCLEAR REPULSION ENERGY  270.15500869


 Eigenvalues of metric

         1 0.176E-02 0.508E-02 0.513E-02 0.102E-01 0.124E-01 0.215E-01 0.221E-01 0.252E-01


 Contracted 2-electron integrals neglected if value below      1.0D-11
 AO integral compression algorithm  1   Integral accuracy      1.0D-11

     186.384 MB (compressed) written to integral file ( 41.3%)


 NUMBER OF SORTED TWO-ELECTRON INTEGRALS:   54502020.     BUFFER LENGTH:  32768
 NUMBER OF SEGMENTS:   4  SEGMENT LENGTH:   15999503      RECORD LENGTH: 524288

 Memory used in sort:      16.56 MW

 SORT1 READ    56333432. AND WROTE    45703433. INTEGRALS IN    132 RECORDS. CPU TIME:     0.85 SEC, REAL TIME:     1.65 SEC
 SORT2 READ    45703433. AND WROTE    54502020. INTEGRALS IN    711 RECORDS. CPU TIME:     1.21 SEC, REAL TIME:     4.26 SEC

 FILE SIZES:   FILE 1:   217.4 MBYTE,  FILE 4:   553.7 MBYTE,   TOTAL:    771.1 MBYTE

 OPERATOR DM      FOR CENTER  0  COORDINATES:    0.000000    0.000000    0.000000


 **********************************************************************************************************************************
 DATASETS  * FILE   NREC   LENGTH (MB)   RECORD NAMES
              1      19      194.45       500      610      700      900      950      970     1000      129      960     1100   
                                          VAR    BASINP    GEOM    SYMINP    ZMAT    AOBASIS   BASIS     P2S    ABASIS      S 
                                         1400     1410     1200     1210     1080     1600     1650     1300     1700   
                                           T        V       H0       H01     AOSYM     SMH    MOLCAS    ERIS     OPER   

 PROGRAMS   *        TOTAL       INT
 CPU TIMES  *         7.95      7.81
 REAL TIME  *        15.64 SEC
 DISK USED  *       771.70 MB      
 **********************************************************************************************************************************

 Density functional group SOGGA=XC-SOGGA
 Functional: XC-SOGGA(via MFM 1.6)                                             Gradient terms: 1
 Use grid at  1800.2

 Functional: XC-SOGGA                  Factor:  1.0000

 Generated new metagrid on record  1800.2 with target accuracy 1.0D-06 and 66012 points in CPU time    2.1
 Computed new grid on record 1800.1 in CPU time    2.4
  118710 words reserved for DFT integration

 PROGRAM * RKS-SCF (Restricted closed shell Kohn-Sham)     Authors: W. Meyer, H.-J. Werner, P.J. Knowles, 1993

 NUMBER OF ELECTRONS:      25+   25-    SPACE SYMMETRY=1    SPIN SYMMETRY: Singlet 
 CONVERGENCE THRESHOLDS:    1.00E-05 (Density)    1.00E-06 (Energy)
 MAX. NUMBER OF ITERATIONS:       60
 INTERPOLATION TYPE:            DIIS
 INTERPOLATION STEPS:              2 (START)      1 (STEP)
 LEVEL SHIFTS:                  0.00 (CLOSED)  0.00 (OPEN) 



 Use fine grid record 1800.2 for energy threshold  1.0D-06
 Orbital guess generated from atomic densities. Full valence occupancy:   25

 Molecular orbital dump at record        2100.2

 Initial occupancy:  25

 ITERATION    DDIFF          GRAD             ENERGY        2-EL.EN.            DIPOLE MOMENTS         DIIS   ORB.
    1      0.000D+00      0.000D+00      -270.71193093    820.641026   -0.64119    0.00000    0.62190    0    start
    2      0.000D+00      0.947D-02      -270.34060607    770.977583    0.21916   -0.00000   -0.36560    1    diag
    3      0.271D-01      0.140D-01      -271.00515358    803.057442   -0.40587    0.00000    0.41355    2    diag
    4      0.196D-01      0.145D-02      -271.00962377    800.850017   -0.28513    0.00000    0.27128    3    diag
    5      0.194D-02      0.724D-03      -271.01084579    801.119263   -0.35969    0.00000    0.30653    4    diag
    6      0.663D-03      0.175D-03      -271.01090150    801.137504   -0.33231    0.00000    0.29788    5    diag
    7      0.204D-03      0.840D-04      -271.01091897    801.133549   -0.33711    0.00000    0.30150    6    diag
    8      0.687D-04      0.733D-05      -271.01091910    801.139913   -0.33832    0.00000    0.30279    7    diag
    9      0.987D-05      0.279D-05      -271.01091908    801.140686   -0.33761    0.00000    0.30143    0    orth

 Final occupancy:  25

 !RKS STATE 1.1 Energy               -271.010919079682
 Nuclear energy                       270.15500869
 One-electron energy                 -903.41149192
 Two-electron energy                  400.57034288
 Density functional                   -38.32477874     XC-SOGGA=-38.32477874
 Virial quotient                       -1.00776477
 !RKS STATE 1.1 Dipole moment          -0.33761419     0.00000000     0.30143366
 Dipole moment /Debye                  -0.85807347     0.00000000     0.76611775

 Orbital energies:

         1.1          2.1          3.1          4.1          5.1          6.1          7.1          8.1          9.1         10.1
    -18.668119    -9.884098    -9.860695    -9.818031    -9.818013    -9.813119    -0.916023    -0.710081    -0.614959    -0.608623

        11.1         12.1         13.1         14.1         15.1         16.1         17.1         18.1         19.1         20.1
     -0.588436    -0.480808    -0.427540    -0.405272    -0.400562    -0.373838    -0.357191    -0.343277    -0.326830    -0.319482

        21.1         22.1         23.1         24.1         25.1         26.1         27.1
     -0.309973    -0.292002    -0.290840    -0.243390    -0.195145     0.035288     0.064122

 HOMO     25.1    -0.195145 =      -5.3102eV
 LUMO     26.1     0.035288 =       0.9602eV
 LUMO-HOMO         0.230433 =       6.2704eV


 **********************************************************************************************************************************
 DATASETS  * FILE   NREC   LENGTH (MB)   RECORD NAMES
              1      20      196.57       500      610      700      900      950      970     1000      129      960     1100   
                                          VAR    BASINP    GEOM    SYMINP    ZMAT    AOBASIS   BASIS     P2S    ABASIS      S 
                                         1400     1410     1200     1210     1080     1600     1650     1300     1700     1800   
                                           T        V       H0       H01     AOSYM     SMH    MOLCAS    ERIS     OPER     GRID   

              2       5        3.48       700     1000      520     1800     2100   
                                         GEOM     BASIS   MCVARS    GRID      RKS  

 PROGRAMS   *        TOTAL        KS       INT
 CPU TIMES  *        30.06     22.11      7.81
 REAL TIME  *        44.45 SEC
 DISK USED  *       771.70 MB      
 **********************************************************************************************************************************


 PROGRAM * Intrinsic Basis Bonding Analysis (IBBA)          Author: G. Knizia

 Molecular orbitals read from record     2100.2  Type=RKS/CANONICAL (state 1.1)
 Fock matrix read from record            2100.2  Type=RKS/TOTAL (state 1.1)
 Orbital energies read from record       2100.2  Type=RKS/CANONICAL (state 1.1)
 Density matrix read from record         2100.2  Type=RKS/CHARGE (state 1.1)

 Number of core orbitals:           6 (   6 )
 Number of closed-shell orbitals:  19 (  19 )

 Basis set MINAO-AUTO-PP generated.      Number of basis functions:   42 

 Polarized AO type:                A = (O Ot + (1-O)(1-Ot)) P12
 Orthogonalization method:         Symmetric (Loewdin)
 Localization functional:          L = sum[A,i] <i|n_A|i>^4 -> max

 Localization group 1:  25 orbitals, occupancy  2.000
 Iterative localization: IB/PM,    7 iter; Final gradient 0.37E-08

 Bond order analysis:       [THRPRINT= 0.020]

   CEN ATOM   CEN ATOM     WIBERG.BO      RENORM.BO
     1   C  -   2   C       0.995551       0.993606
     1   C  -   5   H       0.958809       0.984468
     1   C  -   7   H       0.954271       0.979285
     1   C  -   6   H       0.954271       0.979285

     2   C  -   1   C       0.995551       0.993606
     2   C  -  12   C       0.991324       0.968813
     2   C  -  11   C       0.991324       0.968813
     2   C  -   3   O       0.930879       0.927108

     3   O  -   4   C       0.997394       1.014080
     3   O  -   2   C       0.930879       0.927108
     3   O  -   9   H       0.036405       0.021802
     3   O  -  10   H       0.036405       0.021802
     3   O  -  12   C       0.029199       0.015266
     3   O  -  11   C       0.029199       0.015266

     4   C  -   3   O       0.997394       1.014080
     4   C  -   8   H       0.951362       0.976423
     4   C  -   9   H       0.943733       0.931672
     4   C  -  10   H       0.943733       0.931672

     5   H  -   1   C       0.958809       0.984468

     6   H  -   1   C       0.954271       0.979285

     7   H  -   1   C       0.954271       0.979285

     8   H  -   4   C       0.951362       0.976423

     9   H  -   4   C       0.943733       0.931672
     9   H  -   3   O       0.036405       0.021802

    10   H  -   4   C       0.943733       0.931672
    10   H  -   3   O       0.036405       0.021802

    11   C  -   2   C       0.991324       0.968813
    11   C  -  17   H       0.956868       0.978809
    11   C  -  13   H       0.954719       0.979380
    11   C  -  15   H       0.954692       0.984802
    11   C  -   3   O       0.029199       0.015266

    12   C  -   2   C       0.991324       0.968813
    12   C  -  18   H       0.956868       0.978809
    12   C  -  14   H       0.954719       0.979380
    12   C  -  16   H       0.954692       0.984802
    12   C  -   3   O       0.029199       0.015266

    13   H  -  11   C       0.954719       0.979380

    14   H  -  12   C       0.954719       0.979380

    15   H  -  11   C       0.954692       0.984802

    16   H  -  12   C       0.954692       0.984802

    17   H  -  11   C       0.956868       0.978809

    18   H  -  12   C       0.956868       0.978809


 Valency analysis:

   CEN ATOM   TOT.VALENCE
     1   C       3.930324
     2   C       3.941479
     3   O       2.137173
     4   C       3.863682
     5   H       0.980985
     6   H       0.978215
     7   H       0.978215
     8   H       0.974921
     9   H       0.985948
    10   H       0.985948
    11   C       3.930410
    12   C       3.930410
    13   H       0.978492
    14   H       0.978492
    15   H       0.978738
    16   H       0.978738
    17   H       0.981245
    18   H       0.981245

 Total charge composition:

   CEN ATOM         s          p       ELECTRONS ->P.CHARGE
     1   C       3.02634    3.40036      6.42671   -0.42671
     2   C       2.92324    2.84724      5.77048    0.22952
     3   O       3.59953    4.77053      8.37006   -0.37006
     4   C       3.01639    3.21157      6.22797   -0.22797
     5   H       0.86211                 0.86211    0.13789
     6   H       0.85240                 0.85240    0.14760
     7   H       0.85240                 0.85240    0.14760
     8   H       0.84164                 0.84164    0.15836
     9   H       0.88146                 0.88146    0.11854
    10   H       0.88146                 0.88146    0.11854
    11   C       3.02621    3.41988      6.44608   -0.44608
    12   C       3.02621    3.41988      6.44608   -0.44608
    13   H       0.85334                 0.85334    0.14666
    14   H       0.85334                 0.85334    0.14666
    15   H       0.85419                 0.85419    0.14581
    16   H       0.85419                 0.85419    0.14581
    17   H       0.86305                 0.86305    0.13695
    18   H       0.86305                 0.86305    0.13695

 Total charge composition, AO contributions:

   CEN ATOM SHL      SPHERICAL COMPONENTS
     1   C  1s       1.99156
     1   C  2s       1.03478
     1   C  2p       1.16972    1.18287    1.04777

     2   C  1s       1.99320
     2   C  2s       0.93003
     2   C  2p       0.80879    1.01995    1.01850

     3   O  1s       1.99742
     3   O  2s       1.60212
     3   O  2p       1.42775    1.90140    1.44138

     4   C  1s       1.99217
     4   C  2s       1.02423
     4   C  2p       1.17034    1.18065    0.86059

     5   H  1s       0.86211

     6   H  1s       0.85240

     7   H  1s       0.85240

     8   H  1s       0.84164

     9   H  1s       0.88146

    10   H  1s       0.88146

    11   C  1s       1.99161
    11   C  2s       1.03460
    11   C  2p       1.15428    1.10450    1.16110

    12   C  1s       1.99161
    12   C  2s       1.03460
    12   C  2p       1.15428    1.10450    1.16110

    13   H  1s       0.85334

    14   H  1s       0.85334

    15   H  1s       0.85419

    16   H  1s       0.85419

    17   H  1s       0.86305

    18   H  1s       0.86305

 Summary of localized orbital composition:   [THRPRINT= 0.020]

   ORB  GRP  ORB.ENERGY      CENTERS/CHARGES
     1   1   -18.533819      O  3   2.000
     2   1    -9.796754      C  2   2.000
     3   1    -9.755120      C  4   2.000
     4   1    -9.708061      C 12   2.000
     5   1    -9.708061      C 11   2.000
     6   1    -9.702498      C  1   2.000
     7   1    -0.687599      O  3   1.240   C  4   0.752
     8   1    -0.659037      O  3   1.264   C  2   0.710   (other: 0.026)
     9   1    -0.510193      C 11   1.007   C  2   0.975
    10   1    -0.510193      C 12   1.007   C  2   0.975
    11   1    -0.507907      C  1   0.990   C  2   0.985   (other: 0.025)
    12   1    -0.461802      O  3   1.958   (other: 0.042)
    13   1    -0.454123      C  4   1.139   H 10   0.859
    14   1    -0.454123      C  4   1.139   H  9   0.859
    15   1    -0.452409      C  4   1.157   H  8   0.834
    16   1    -0.440641      C 11   1.137   H 15   0.845
    17   1    -0.440641      C 12   1.137   H 16   0.845
    18   1    -0.438892      C 12   1.134   H 18   0.854
    19   1    -0.438892      C 11   1.134   H 17   0.854
    20   1    -0.436999      C  1   1.131   H  5   0.854
    21   1    -0.434814      C 11   1.144   H 13   0.844
    22   1    -0.434814      C 12   1.144   H 14   0.844
    23   1    -0.429965      C  1   1.144   H  7   0.843
    24   1    -0.429965      C  1   1.144   H  6   0.843
    25   1    -0.239024      O  3   1.901   C  2   0.021   (other: 0.078)

 Localized orbitals saved to record      2100.2  (orbital set 2)


 **********************************************************************************************************************************
 DATASETS  * FILE   NREC   LENGTH (MB)   RECORD NAMES
              1      20      196.57       500      610      700      900      950      970     1000      129      960     1100   
                                          VAR    BASINP    GEOM    SYMINP    ZMAT    AOBASIS   BASIS     P2S    ABASIS      S 
                                         1400     1410     1200     1210     1080     1600     1650     1300     1700     1800   
                                           T        V       H0       H01     AOSYM     SMH    MOLCAS    ERIS     OPER     GRID   

              2       5        3.65       700     1000      520     1800     2100   
                                         GEOM     BASIS   MCVARS    GRID      RKS  

 PROGRAMS   *        TOTAL      IBBA        KS       INT
 CPU TIMES  *        30.12      0.05     22.11      7.81
 REAL TIME  *        44.83 SEC
 DISK USED  *       771.70 MB      
 **********************************************************************************************************************************
 Molecular orbitals read from record     2100.2  Type=RKS/LOCAL(IBO)  
 Occupation numbers read from record     2100.2  Type=RKS/LOCAL(IBO)  
 Orbital energies read from record       2100.2  Type=RKS/LOCAL(IBO)  
 Redundancy group numbers read from rec  2100.2  Type=RKS/LOCAL(IBO)  

 IBBA/SVP energy=      0.000000000000

        KS-SCF  
   -271.01091908
 **********************************************************************************************************************************
 Molpro calculation terminated
