
 Primary working directories    : /local
 Secondary working directories  : /local
 Wavefunction directory         : /local/
 Main file repository           : /local/

 SHA1      : b4a5b34a9e711420743f49e6833241d17c61fb3c
 NAME      : 2099.9.b4a5b34
 ARCHNAME  : linux/x86_64_openmp
 FC        : /cm/shared/languages/GCC-6.1/bin/gfortran
 BLASLIB   : -lblas
 id        : simonbennie

 Nodes     nprocs
 node47-008    1

 Using customized tuning parameters: mindgm=1; mindgv=20; mindgc=4; mindgr=1; noblas=0; minvec=7
 default implementation of scratch files=df  

 memory,500,m
 geomtyp=xyz
 nosym
 noorient
 geometry={
 C         -1.53233        0.02247        0.00000
 C         -0.00192        0.01421        0.00000
 O          0.37239        1.40356        0.00000
 H          1.34248        1.44036        0.00000
 H         -1.92991       -0.99819        0.00000
 H         -1.90797        0.54382       -0.88653
 H         -1.90797        0.54382        0.88653
 C          0.54303       -0.66466       -1.26580
 C          0.54303       -0.66466        1.26580
 H          0.17836       -0.14752       -2.15943
 H          0.17836       -0.14752        2.15943
 H          0.23752       -1.71600       -1.32280
 H          0.23752       -1.71600        1.32280
 H          1.64084       -0.63767       -1.28032
 H          1.64084       -0.63767        1.28032
 }
 basis={ default,avtz }
 {ks,B97,direct;wf,42,1,0}
 {ibba,bonds=1}

 Variables initialized (895), CPU time= 0.01 sec
 Commands  initialized (725), CPU time= 0.01 sec, 591 directives.
 Default parameters read. Elapsed time= 0.14 sec

 Checking input...
 Passed
1


                                         ***  PROGRAM SYSTEM MOLPRO  ***
                                       Copyright, TTI GmbH Stuttgart, 2015
                                    Version 2099.9 linked May 26 2017 16:03:21


 **********************************************************************************************************************************
 LABEL *                                                                                 
  64 bit serial version                                                                  DATE: 12-Jun-17          TIME: 16:05:26  
 **********************************************************************************************************************************

 SHA1:             b4a5b34a9e711420743f49e6833241d17c61fb3c
 **********************************************************************************************************************************
 SETTING GEOMTYP        =    XYZ

 Variable memory set to  500000000 words,  buffer space 

 ZSYMEL=NOSYM

 SETTING BASIS          =    AVTZ


 Recomputing integrals since basis changed


 Using spherical harmonics

 Library entry C      S aug-cc-pVTZ          selected for orbital group  1
 Library entry C      P aug-cc-pVTZ          selected for orbital group  1
 Library entry C      D aug-cc-pVTZ          selected for orbital group  1
 Library entry C      F aug-cc-pVTZ          selected for orbital group  1
 Library entry O      S aug-cc-pVTZ          selected for orbital group  2
 Library entry O      P aug-cc-pVTZ          selected for orbital group  2
 Library entry O      D aug-cc-pVTZ          selected for orbital group  2
 Library entry O      F aug-cc-pVTZ          selected for orbital group  2
 Library entry H      S aug-cc-pVTZ          selected for orbital group  3
 Library entry H      P aug-cc-pVTZ          selected for orbital group  3
 Library entry H      D aug-cc-pVTZ          selected for orbital group  3


 PROGRAM * SEWARD (Integral evaluation for generally contracted gaussian basis sets)     Author: Roland Lindh, 1990

 Geometry written to block  1 of record 700


 Point group  C1  



 ATOMIC COORDINATES

 NR  ATOM    CHARGE       X              Y              Z

   1  C       6.00   -2.895684032    0.042462146    0.000000000
   2  C       6.00   -0.003628274    0.026853008    0.000000000
   3  O       8.00    0.703715112    2.652343999    0.000000000
   4  H       1.00    2.536919528    2.721885921    0.000000000
   5  H       1.00   -3.647001345   -1.886305720    0.000000000
   6  H       1.00   -3.605540754    1.027670861   -1.675298901
   7  H       1.00   -3.605540754    1.027670861    1.675298901
   8  C       6.00    1.026177977   -1.256025366   -2.392015328
   9  C       6.00    1.026177977   -1.256025366    2.392015328
  10  H       1.00    0.337051552   -0.278772398   -4.080731285
  11  H       1.00    0.337051552   -0.278772398    4.080731285
  12  H       1.00    0.448847749   -3.242770030   -2.499729718
  13  H       1.00    0.448847749   -3.242770030    2.499729718
  14  H       1.00    3.100738214   -1.205021658   -2.419454152
  15  H       1.00    3.100738214   -1.205021658    2.419454152

 Bond lengths in Bohr (Angstrom)

 1-2  2.892097881  1-5  2.069933136  1-6  2.069096224  1-7  2.069096224  2-3  2.719106031
     ( 1.530432290)     ( 1.095361444)     ( 1.094918569)     ( 1.094918569)     ( 1.438888946)

  2- 8  2.903104402   2- 9  2.903104402   3- 4  1.834522965   8-10  2.069222119   8-12  2.071730422
       ( 1.536256691)       ( 1.536256691)       ( 0.970787746)       ( 1.094985190)       ( 1.096312526)

  8-14  2.075368508   9-11  2.069222119   9-13  2.071730422   9-15  2.075368508
       ( 1.098237719)       ( 1.094985190)       ( 1.096312526)       ( 1.098237719)

 Bond angles

  1-2-3  104.76902697   1-2-8  110.92255387   1-2-9  110.92255387   2-1-5  110.97328220

  2- 1- 6  110.22090701   2- 1- 7  110.22090701   2- 3- 4  107.25071562   2- 8-10  110.21836376

  2- 8-12  111.57747468   2- 8-14  110.77023896   2- 9-11  110.21836376   2- 9-13  111.57747468

  2- 9-15  110.77023896   3- 2- 8  109.53648747   3- 2- 9  109.53648747   5- 1- 6  108.61190457

  5- 1- 7  108.61190457   6- 1- 7  108.12870271   8- 2- 9  110.96453384  10- 8-12  108.52192632

 10- 8-14  108.08997829  11- 9-13  108.52192632  11- 9-15  108.08997829  12- 8-14  107.54424578

 13- 9-15  107.54424578

 NUCLEAR CHARGE:                   42
 NUMBER OF PRIMITIVE AOS:         605
 NUMBER OF SYMMETRY AOS:          540
 NUMBER OF CONTRACTIONS:          460   ( 460A   )
 NUMBER OF CORE ORBITALS:           5   (   5A   )
 NUMBER OF VALENCE ORBITALS:       30   (  30A   )


 NUCLEAR REPULSION ENERGY  198.77359127


 Eigenvalues of metric

         1 0.351E-05 0.596E-05 0.770E-05 0.977E-05 0.161E-04 0.173E-04 0.207E-04 0.297E-04


 Contracted 2-electron integrals neglected if value below      1.0D-12
 AO integral compression algorithm  1   Integral accuracy      1.0D-12

     24892.932 MB (compressed) written to integral file ( 51.7%)


 NUMBER OF SORTED TWO-ELECTRON INTEGRALS: 5621233465.     BUFFER LENGTH:  32768
 NUMBER OF SEGMENTS: 176  SEGMENT LENGTH:   31999951      RECORD LENGTH: 131072

 Memory used in sort:      32.16 MW

 SORT1 READ  6020115514. AND WROTE  5366777799. INTEGRALS IN  61513 RECORDS. CPU TIME:    82.87 SEC, REAL TIME:  1042.97 SEC
 SORT2 READ  5366777799. AND WROTE  5621233465. INTEGRALS IN  94959 RECORDS. CPU TIME:   133.03 SEC, REAL TIME:  3814.04 SEC

 FILE SIZES:   FILE 1: 24930.9 MBYTE,  FILE 4: 64501.1 MBYTE,   TOTAL:  89432.0 MBYTE

 OPERATOR DM      FOR CENTER  0  COORDINATES:    0.000000    0.000000    0.000000


 **********************************************************************************************************************************
 DATASETS  * FILE   NREC   LENGTH (MB)   RECORD NAMES
              1      19    23757.53       500      610      700      900      950      970     1000      129      960     1100   
                                          VAR    BASINP    GEOM    SYMINP    ZMAT    AOBASIS   BASIS     P2S    ABASIS      S 
                                         1400     1410     1200     1210     1080     1600     1650     1300     1700   
                                           T        V       H0       H01     AOSYM     SMH    MOLCAS    ERIS     OPER   

 PROGRAMS   *        TOTAL       INT
 CPU TIMES  *       438.10    437.95
 REAL TIME  *      5194.02 SEC
 DISK USED  *        89.43 GB      
 **********************************************************************************************************************************

 Density functional group B97=B97DF
 Functional: B97DF(Automatically generated (new) B97DF)                        Gradient terms: 1
 Use grid at  1800.2


 Exact exchange will be calculated, factor:  0.1943

 Functional: B97DF                     Factor:  1.0000

 Generated new metagrid on record  1800.2 with target accuracy 1.0D-06 and 55396 points in CPU time    1.7
 Computed new grid on record 1800.1 in CPU time    1.9
  370324 words reserved for DFT integration

 PROGRAM * RKS-SCF (Restricted closed shell Kohn-Sham)     Authors: W. Meyer, H.-J. Werner, P.J. Knowles, 1993

 NUMBER OF ELECTRONS:      21+   21-    SPACE SYMMETRY=1    SPIN SYMMETRY: Singlet 
 CONVERGENCE THRESHOLDS:    1.00E-05 (Density)    1.00E-06 (Energy)
 MAX. NUMBER OF ITERATIONS:       60
 INTERPOLATION TYPE:            DIIS
 INTERPOLATION STEPS:              2 (START)      1 (STEP)
 LEVEL SHIFTS:                  0.00 (CLOSED)  0.00 (OPEN) 



 Use fine grid record 1800.2 for energy threshold  1.0D-06
 Orbital guess generated from atomic densities. Full valence occupancy:   35

 Molecular orbital dump at record        2100.2

 Initial occupancy:  21

 ITERATION    DDIFF          GRAD             ENERGY        2-EL.EN.            DIPOLE MOMENTS         DIIS   ORB.
    1      0.000D+00      0.000D+00      -233.48192481    623.710429    0.68672   -0.79982    0.00000    0    start
    2      0.000D+00      0.468D-02      -233.34281333    589.459566   -0.26276   -0.11028    0.00000    1    diag
    3      0.101D-01      0.621D-02      -233.67861847    610.125518    0.36994   -0.63728    0.00000    2    diag
    4      0.532D-02      0.798D-03      -233.68280456    609.287194    0.33010   -0.48444    0.00000    3    diag
    5      0.695D-03      0.217D-03      -233.68310263    609.179430    0.32765   -0.53971    0.00000    4    diag
    6      0.181D-03      0.678D-04      -233.68313705    609.288523    0.32991   -0.52887    0.00000    5    diag
    7      0.621D-04      0.200D-04      -233.68313989    609.276117    0.33058   -0.52742    0.00000    6    diag
    8      0.171D-04      0.231D-05      -233.68313994    609.281656    0.33034   -0.52897    0.00000    7    diag
    9      0.306D-05      0.683D-06      -233.68313994    609.280398    0.33051   -0.52822    0.00000    0    orth

 Final occupancy:  21

 !RKS STATE 1.1 Energy               -233.683139944279
 Nuclear energy                       198.77359127
 One-electron energy                 -709.43639806
 Two-electron energy                  304.64019902
 SCF exchange energy                  -32.51006678     Factor= 0.1943
 Density functional                   -27.66053218     B97DF=-27.66053218
 Virial quotient                       -1.00637831
 !RKS STATE 1.1 Dipole moment           0.33051463    -0.52822076     0.00000000
 Dipole moment /Debye                   0.84002939    -1.34251531     0.00000000

 Orbital energies:

         1.1          2.1          3.1          4.1          5.1          6.1          7.1          8.1          9.1         10.1
    -19.109729   -10.222377   -10.152349   -10.152335   -10.147218    -1.019783    -0.788272    -0.691693    -0.690688    -0.568405

        11.1         12.1         13.1         14.1         15.1         16.1         17.1         18.1         19.1         20.1
     -0.488848    -0.451155    -0.448191    -0.411645    -0.396834    -0.378994    -0.365682    -0.354933    -0.347638    -0.319607

        21.1         22.1         23.1
     -0.272233    -0.010837     0.012103

 HOMO     21.1    -0.272233 =      -7.4078eV
 LUMO     22.1    -0.010837 =      -0.2949eV
 LUMO-HOMO         0.261395 =       7.1129eV


 **********************************************************************************************************************************
 DATASETS  * FILE   NREC   LENGTH (MB)   RECORD NAMES
              1      20    23759.30       500      610      700      900      950      970     1000      129      960     1100   
                                          VAR    BASINP    GEOM    SYMINP    ZMAT    AOBASIS   BASIS     P2S    ABASIS      S 
                                         1400     1410     1200     1210     1080     1600     1650     1300     1700     1800   
                                           T        V       H0       H01     AOSYM     SMH    MOLCAS    ERIS     OPER     GRID   

              2       5        7.31       700     1000      520     1800     2100   
                                         GEOM     BASIS   MCVARS    GRID      RKS  

 PROGRAMS   *        TOTAL        KS       INT
 CPU TIMES  *      1407.83    969.73    437.95
 REAL TIME  *      9347.89 SEC
 DISK USED  *        89.43 GB      
 **********************************************************************************************************************************


 PROGRAM * Intrinsic Basis Bonding Analysis (IBBA)          Author: G. Knizia

 Molecular orbitals read from record     2100.2  Type=RKS/CANONICAL (state 1.1)
 Fock matrix read from record            2100.2  Type=RKS/TOTAL (state 1.1)
 Orbital energies read from record       2100.2  Type=RKS/CANONICAL (state 1.1)
 Density matrix read from record         2100.2  Type=RKS/CHARGE (state 1.1)

 Number of core orbitals:           5 (   5 )
 Number of closed-shell orbitals:  16 (  16 )

 Basis set MINAO-AUTO-PP generated.      Number of basis functions:   35 

 Polarized AO type:                A = (O Ot + (1-O)(1-Ot)) P12
 Orthogonalization method:         Symmetric (Loewdin)
 Localization functional:          L = sum[A,i] <i|n_A|i>^4 -> max

 Localization group 1:  21 orbitals, occupancy  2.000
 Iterative localization: IB/PM,    7 iter; Final gradient 0.28E-08

 Bond order analysis:       [THRPRINT= 0.020]

   CEN ATOM   CEN ATOM     WIBERG.BO      RENORM.BO
     1   C  -   2   C       0.996611       0.993785
     1   C  -   5   H       0.963206       0.987198
     1   C  -   6   H       0.958357       0.981414
     1   C  -   7   H       0.958357       0.981414

     2   C  -   1   C       0.996611       0.993785
     2   C  -   9   C       0.995306       0.976087
     2   C  -   8   C       0.995306       0.976087
     2   C  -   3   O       0.932476       0.949518

     3   O  -   2   C       0.932476       0.949518
     3   O  -   4   H       0.860181       0.976340
     3   O  -   8   C       0.027569       0.014090
     3   O  -   9   C       0.027569       0.014090

     4   H  -   3   O       0.860181       0.976340

     5   H  -   1   C       0.963206       0.987198

     6   H  -   1   C       0.958357       0.981414

     7   H  -   1   C       0.958357       0.981414

     8   C  -   2   C       0.995306       0.976087
     8   C  -  14   H       0.962579       0.982138
     8   C  -  12   H       0.958971       0.981459
     8   C  -  10   H       0.958868       0.981268
     8   C  -   3   O       0.027569       0.014090

     9   C  -   2   C       0.995306       0.976087
     9   C  -  15   H       0.962579       0.982138
     9   C  -  13   H       0.958971       0.981459
     9   C  -  11   H       0.958868       0.981268
     9   C  -   3   O       0.027569       0.014090

    10   H  -   8   C       0.958868       0.981268

    11   H  -   9   C       0.958868       0.981268

    12   H  -   8   C       0.958971       0.981459

    13   H  -   9   C       0.958971       0.981459

    14   H  -   8   C       0.962579       0.982138

    15   H  -   9   C       0.962579       0.982138


 Valency analysis:

   CEN ATOM   TOT.VALENCE
     1   C       3.936473
     2   C       3.929663
     3   O       1.914719
     4   H       0.879783
     5   H       0.981681
     6   H       0.979060
     7   H       0.979060
     8   C       3.939089
     9   C       3.939089
    10   H       0.979092
    11   H       0.979092
    12   H       0.980911
    13   H       0.980911
    14   H       0.983203
    15   H       0.983203

 Total charge composition:

   CEN ATOM         s          p       ELECTRONS ->P.CHARGE
     1   C       3.04590    3.37125      6.41715   -0.41715
     2   C       2.94185    2.79962      5.74147    0.25853
     3   O       3.65165    4.92544      8.57708   -0.57708
     4   H       0.65328                 0.65328    0.34672
     5   H       0.86465                 0.86465    0.13535
     6   H       0.85529                 0.85529    0.14471
     7   H       0.85529                 0.85529    0.14471
     8   C       3.05224    3.37801      6.43025   -0.43025
     9   C       3.05224    3.37801      6.43025   -0.43025
    10   H       0.85541                 0.85541    0.14459
    11   H       0.85541                 0.85541    0.14459
    12   H       0.86184                 0.86184    0.13816
    13   H       0.86184                 0.86184    0.13816
    14   H       0.87040                 0.87040    0.12960
    15   H       0.87040                 0.87040    0.12960

 Total charge composition, AO contributions:

   CEN ATOM SHL      SPHERICAL COMPONENTS
     1   C  1s       1.99108
     1   C  2s       1.05482
     1   C  2p       1.03761    1.16073    1.17291

     2   C  1s       1.99271
     2   C  2s       0.94914
     2   C  2p       1.00610    0.78470    1.00882

     3   O  1s       1.99713
     3   O  2s       1.65452
     3   O  2p       1.47615    1.49291    1.95638

     4   H  1s       0.65328

     5   H  1s       0.86465

     6   H  1s       0.85529

     7   H  1s       0.85529

     8   C  1s       1.99118
     8   C  2s       1.06106
     8   C  2p       1.14271    1.14250    1.09280

     9   C  1s       1.99118
     9   C  2s       1.06106
     9   C  2p       1.14271    1.14250    1.09280

    10   H  1s       0.85541

    11   H  1s       0.85541

    12   H  1s       0.86184

    13   H  1s       0.86184

    14   H  1s       0.87040

    15   H  1s       0.87040

 Summary of localized orbital composition:   [THRPRINT= 0.020]

   ORB  GRP  ORB.ENERGY      CENTERS/CHARGES
     1   1   -18.948039      O  3   2.000
     2   1   -10.130220      C  2   2.000
     3   1   -10.036821      C  8   2.000
     4   1   -10.036821      C  9   2.000
     5   1   -10.030897      C  1   2.000
     6   1    -0.762022      O  3   1.349   H  4   0.642
     7   1    -0.718433      O  3   1.286   C  2   0.695
     8   1    -0.581796      O  3   1.982
     9   1    -0.573528      C  9   1.007   C  2   0.977
    10   1    -0.573528      C  8   1.007   C  2   0.977
    11   1    -0.572911      C  1   0.990   C  2   0.986   (other: 0.024)
    12   1    -0.505438      C  9   1.134   H 13   0.852
    13   1    -0.505438      C  8   1.134   H 12   0.852
    14   1    -0.503553      C  9   1.125   H 15   0.863
    15   1    -0.503553      C  8   1.125   H 14   0.863
    16   1    -0.501223      C  1   1.129   H  5   0.858
    17   1    -0.499588      C  8   1.142   H 10   0.847
    18   1    -0.499588      C  9   1.142   H 11   0.847
    19   1    -0.495030      C  1   1.142   H  7   0.847
    20   1    -0.495030      C  1   1.142   H  6   0.847
    21   1    -0.305153      O  3   1.956   (other: 0.044)

 Localized orbitals saved to record      2100.2  (orbital set 2)


 **********************************************************************************************************************************
 DATASETS  * FILE   NREC   LENGTH (MB)   RECORD NAMES
              1      20    23759.30       500      610      700      900      950      970     1000      129      960     1100   
                                          VAR    BASINP    GEOM    SYMINP    ZMAT    AOBASIS   BASIS     P2S    ABASIS      S 
                                         1400     1410     1200     1210     1080     1600     1650     1300     1700     1800   
                                           T        V       H0       H01     AOSYM     SMH    MOLCAS    ERIS     OPER     GRID   

              2       5        9.01       700     1000      520     1800     2100   
                                         GEOM     BASIS   MCVARS    GRID      RKS  

 PROGRAMS   *        TOTAL      IBBA        KS       INT
 CPU TIMES  *      1408.09      0.26    969.73    437.95
 REAL TIME  *      9348.39 SEC
 DISK USED  *        89.43 GB      
 **********************************************************************************************************************************
 Molecular orbitals read from record     2100.2  Type=RKS/LOCAL(IBO)  
 Occupation numbers read from record     2100.2  Type=RKS/LOCAL(IBO)  
 Orbital energies read from record       2100.2  Type=RKS/LOCAL(IBO)  
 Redundancy group numbers read from rec  2100.2  Type=RKS/LOCAL(IBO)  

 IBBA/aug-cc-pVTZ energy=      0.000000000000

        KS-SCF  
   -233.68313994
 **********************************************************************************************************************************
 Molpro calculation terminated
