
 Primary working directories    : /local
 Secondary working directories  : /local
 Wavefunction directory         : /local/
 Main file repository           : /local/

 SHA1      : b4a5b34a9e711420743f49e6833241d17c61fb3c
 NAME      : 2099.9.b4a5b34
 ARCHNAME  : linux/x86_64_openmp
 FC        : /cm/shared/languages/GCC-6.1/bin/gfortran
 BLASLIB   : -lblas
 id        : simonbennie

 Nodes     nprocs
 node33-009    1

 Using customized tuning parameters: mindgm=1; mindgv=20; mindgc=4; mindgr=1; noblas=0; minvec=7
 default implementation of scratch files=df  

 memory,500,m
 geomtyp=xyz
 nosym
 noorient
 geometry={
 C         -1.53233        0.02247        0.00000
 C         -0.00192        0.01421        0.00000
 O          0.37239        1.40356        0.00000
 H          1.34248        1.44036        0.00000
 H         -1.92991       -0.99819        0.00000
 H         -1.90797        0.54382       -0.88653
 H         -1.90797        0.54382        0.88653
 C          0.54303       -0.66466       -1.26580
 C          0.54303       -0.66466        1.26580
 H          0.17836       -0.14752       -2.15943
 H          0.17836       -0.14752        2.15943
 H          0.23752       -1.71600       -1.32280
 H          0.23752       -1.71600        1.32280
 H          1.64084       -0.63767       -1.28032
 H          1.64084       -0.63767        1.28032
 }
 basis={ default,qzvp }
 {ks,B-P,direct;wf,42,1,0}
 {ibba,bonds=1}

 Variables initialized (895), CPU time= 0.01 sec
 Commands  initialized (725), CPU time= 0.01 sec, 591 directives.
 Default parameters read. Elapsed time= 0.21 sec

 Checking input...
 Passed
1


                                         ***  PROGRAM SYSTEM MOLPRO  ***
                                       Copyright, TTI GmbH Stuttgart, 2015
                                    Version 2099.9 linked May 26 2017 16:03:21


 **********************************************************************************************************************************
 LABEL *                                                                                 
  64 bit serial version                                                                  DATE: 12-Jun-17          TIME: 18:45:36  
 **********************************************************************************************************************************

 SHA1:             b4a5b34a9e711420743f49e6833241d17c61fb3c
 **********************************************************************************************************************************
 SETTING GEOMTYP        =    XYZ

 Variable memory set to  500000000 words,  buffer space 

 ZSYMEL=NOSYM

 SETTING BASIS          =    QZVP


 Recomputing integrals since basis changed


 Using spherical harmonics

 Library entry C      S def2-QZVP            selected for orbital group  1
 Library entry C      P def2-QZVP            selected for orbital group  1
 Library entry C      D def2-QZVP            selected for orbital group  1
 Library entry C      F def2-QZVP            selected for orbital group  1
 Library entry C      G def2-QZVP            selected for orbital group  1
 Library entry O      S def2-QZVP            selected for orbital group  2
 Library entry O      P def2-QZVP            selected for orbital group  2
 Library entry O      D def2-QZVP            selected for orbital group  2
 Library entry O      F def2-QZVP            selected for orbital group  2
 Library entry O      G def2-QZVP            selected for orbital group  2
 Library entry H      S def2-QZVP            selected for orbital group  3
 Library entry H      P def2-QZVP            selected for orbital group  3
 Library entry H      D def2-QZVP            selected for orbital group  3
 Library entry H      F def2-QZVP            selected for orbital group  3


 PROGRAM * SEWARD (Integral evaluation for generally contracted gaussian basis sets)     Author: Roland Lindh, 1990

 Geometry written to block  1 of record 700


 Point group  C1  



 ATOMIC COORDINATES

 NR  ATOM    CHARGE       X              Y              Z

   1  C       6.00   -2.895684032    0.042462146    0.000000000
   2  C       6.00   -0.003628274    0.026853008    0.000000000
   3  O       8.00    0.703715112    2.652343999    0.000000000
   4  H       1.00    2.536919528    2.721885921    0.000000000
   5  H       1.00   -3.647001345   -1.886305720    0.000000000
   6  H       1.00   -3.605540754    1.027670861   -1.675298901
   7  H       1.00   -3.605540754    1.027670861    1.675298901
   8  C       6.00    1.026177977   -1.256025366   -2.392015328
   9  C       6.00    1.026177977   -1.256025366    2.392015328
  10  H       1.00    0.337051552   -0.278772398   -4.080731285
  11  H       1.00    0.337051552   -0.278772398    4.080731285
  12  H       1.00    0.448847749   -3.242770030   -2.499729718
  13  H       1.00    0.448847749   -3.242770030    2.499729718
  14  H       1.00    3.100738214   -1.205021658   -2.419454152
  15  H       1.00    3.100738214   -1.205021658    2.419454152

 Bond lengths in Bohr (Angstrom)

 1-2  2.892097881  1-5  2.069933136  1-6  2.069096224  1-7  2.069096224  2-3  2.719106031
     ( 1.530432290)     ( 1.095361444)     ( 1.094918569)     ( 1.094918569)     ( 1.438888946)

  2- 8  2.903104402   2- 9  2.903104402   3- 4  1.834522965   8-10  2.069222119   8-12  2.071730422
       ( 1.536256691)       ( 1.536256691)       ( 0.970787746)       ( 1.094985190)       ( 1.096312526)

  8-14  2.075368508   9-11  2.069222119   9-13  2.071730422   9-15  2.075368508
       ( 1.098237719)       ( 1.094985190)       ( 1.096312526)       ( 1.098237719)

 Bond angles

  1-2-3  104.76902697   1-2-8  110.92255387   1-2-9  110.92255387   2-1-5  110.97328220

  2- 1- 6  110.22090701   2- 1- 7  110.22090701   2- 3- 4  107.25071562   2- 8-10  110.21836376

  2- 8-12  111.57747468   2- 8-14  110.77023896   2- 9-11  110.21836376   2- 9-13  111.57747468

  2- 9-15  110.77023896   3- 2- 8  109.53648747   3- 2- 9  109.53648747   5- 1- 6  108.61190457

  5- 1- 7  108.61190457   6- 1- 7  108.12870271   8- 2- 9  110.96453384  10- 8-12  108.52192632

 10- 8-14  108.08997829  11- 9-13  108.52192632  11- 9-15  108.08997829  12- 8-14  107.54424578

 13- 9-15  107.54424578

 NUCLEAR CHARGE:                   42
 NUMBER OF PRIMITIVE AOS:         840
 NUMBER OF SYMMETRY AOS:          715
 NUMBER OF CONTRACTIONS:          585   ( 585A   )
 NUMBER OF CORE ORBITALS:           5   (   5A   )
 NUMBER OF VALENCE ORBITALS:       30   (  30A   )


 NUCLEAR REPULSION ENERGY  198.77359127


 Eigenvalues of metric

         1 0.447E-04 0.459E-04 0.470E-04 0.743E-04 0.823E-04 0.917E-04 0.943E-04 0.107E-03


 Contracted 2-electron integrals neglected if value below      1.0D-12
 AO integral compression algorithm  1   Integral accuracy      1.0D-12

     40752.906 MB (compressed) written to integral file ( 33.4%)


 NUMBER OF SORTED TWO-ELECTRON INTEGRALS:14689922715.     BUFFER LENGTH:  32768
 NUMBER OF SEGMENTS: 184  SEGMENT LENGTH:   79999773      RECORD LENGTH: 262144

 Memory used in sort:      80.29 MW

 SORT1 READ 15248138275. AND WROTE 10587813328. INTEGRALS IN  60679 RECORDS. CPU TIME:   200.21 SEC, REAL TIME:  1997.67 SEC
 SORT2 READ 10587813328. AND WROTE 14689922715. INTEGRALS IN 155460 RECORDS. CPU TIME:   369.95 SEC, REAL TIME:  2408.84 SEC

 FILE SIZES:   FILE 1: 40795.6 MBYTE,  FILE 4:127253.1 MBYTE,   TOTAL: 168048.8 MBYTE

 OPERATOR DM      FOR CENTER  0  COORDINATES:    0.000000    0.000000    0.000000


 **********************************************************************************************************************************
 DATASETS  * FILE   NREC   LENGTH (MB)   RECORD NAMES
              1      19    37754.71       500      610      700      900      950      970     1000      129      960     1100   
                                          VAR    BASINP    GEOM    SYMINP    ZMAT    AOBASIS   BASIS     P2S    ABASIS      S 
                                         1400     1410     1200     1210     1080     1600     1650     1300     1700   
                                           T        V       H0       H01     AOSYM     SMH    MOLCAS    ERIS     OPER   

 PROGRAMS   *        TOTAL       INT
 CPU TIMES  *      1250.78   1250.62
 REAL TIME  *      5186.72 SEC
 DISK USED  *       168.05 GB      
 **********************************************************************************************************************************

 Density functional group B-P=B88+P86
 Functional: B88(Automatically generated (new) B88)                            Gradient terms: 1
 Functional: P86(Automatically generated (new) P86)                            Gradient terms: 1
 Use grid at  1800.2

 Functional: B88                       Factor:  1.0000
 Functional: P86                       Factor:  1.0000

 Generated new metagrid on record  1800.2 with target accuracy 1.0D-06 and 58228 points in CPU time    1.7
 Computed new grid on record 1800.1 in CPU time    1.9
  469144 words reserved for DFT integration

 PROGRAM * RKS-SCF (Restricted closed shell Kohn-Sham)     Authors: W. Meyer, H.-J. Werner, P.J. Knowles, 1993

 NUMBER OF ELECTRONS:      21+   21-    SPACE SYMMETRY=1    SPIN SYMMETRY: Singlet 
 CONVERGENCE THRESHOLDS:    1.00E-05 (Density)    1.00E-06 (Energy)
 MAX. NUMBER OF ITERATIONS:       60
 INTERPOLATION TYPE:            DIIS
 INTERPOLATION STEPS:              2 (START)      1 (STEP)
 LEVEL SHIFTS:                  0.00 (CLOSED)  0.00 (OPEN) 



 Use fine grid record 1800.2 for energy threshold  1.0D-06
 Orbital guess generated from atomic densities. Full valence occupancy:   21

 Molecular orbital dump at record        2100.2

 Initial occupancy:  21

 ITERATION    DDIFF          GRAD             ENERGY        2-EL.EN.            DIPOLE MOMENTS         DIIS   ORB.
    1      0.000D+00      0.000D+00      -233.47736938    640.792466    0.69375   -0.77752    0.00000    0    start
    2      0.000D+00      0.521D-02      -232.91611881    589.030321   -0.62814    0.24331    0.00000    1    diag
    3      0.130D-01      0.855D-02      -233.77881797    624.278224    0.43157   -0.73386    0.00000    2    diag
    4      0.123D-01      0.126D-02      -233.79187049    622.098135    0.33071   -0.39685    0.00000    3    diag
    5      0.507D-03      0.489D-03      -233.79391798    621.773947    0.31597   -0.53154    0.00000    4    diag
    6      0.150D-03      0.153D-03      -233.79413668    621.973456    0.32358   -0.50041    0.00000    5    diag
    7      0.426D-04      0.497D-04      -233.79415799    621.959314    0.32730   -0.49937    0.00000    6    diag
    8      0.112D-04      0.701D-05      -233.79415856    621.979813    0.32561   -0.50447    0.00000    7    diag
    9      0.463D-05      0.211D-05      -233.79415855    621.977907    0.32689   -0.50145    0.00000    0    orth

 Final occupancy:  21

 !RKS STATE 1.1 Energy               -233.794158548811
 Nuclear energy                       198.77359127
 One-electron energy                 -709.50180731
 Two-electron energy                  310.98895355
 Density functional                   -34.05489607     B88=-32.55594259 P86= -1.49895348
 Virial quotient                       -1.00489442
 !RKS STATE 1.1 Dipole moment           0.32689387    -0.50144501     0.00000000
 Dipole moment /Debye                   0.83082693    -1.27446262     0.00000000

 Orbital energies:

         1.1          2.1          3.1          4.1          5.1          6.1          7.1          8.1          9.1         10.1
    -18.764678    -9.959798    -9.890741    -9.890741    -9.886034    -0.934806    -0.718894    -0.628610    -0.627916    -0.517326

        11.1         12.1         13.1         14.1         15.1         16.1         17.1         18.1         19.1         20.1
     -0.443555    -0.408048    -0.405333    -0.370154    -0.356750    -0.340642    -0.327085    -0.316162    -0.309665    -0.282845

        21.1         22.1         23.1
     -0.230518    -0.006050     0.032561

 HOMO     21.1    -0.230518 =      -6.2727eV
 LUMO     22.1    -0.006050 =      -0.1646eV
 LUMO-HOMO         0.224468 =       6.1081eV


 **********************************************************************************************************************************
 DATASETS  * FILE   NREC   LENGTH (MB)   RECORD NAMES
              1      20    37756.57       500      610      700      900      950      970     1000      129      960     1100   
                                          VAR    BASINP    GEOM    SYMINP    ZMAT    AOBASIS   BASIS     P2S    ABASIS      S 
                                         1400     1410     1200     1210     1080     1600     1650     1300     1700     1800   
                                           T        V       H0       H01     AOSYM     SMH    MOLCAS    ERIS     OPER     GRID   

              2       5        9.95       700     1000      520     1800     2100   
                                         GEOM     BASIS   MCVARS    GRID      RKS  

 PROGRAMS   *        TOTAL        KS       INT
 CPU TIMES  *      2288.76   1037.98   1250.62
 REAL TIME  *      6518.42 SEC
 DISK USED  *       168.05 GB      
 **********************************************************************************************************************************


 PROGRAM * Intrinsic Basis Bonding Analysis (IBBA)          Author: G. Knizia

 Molecular orbitals read from record     2100.2  Type=RKS/CANONICAL (state 1.1)
 Fock matrix read from record            2100.2  Type=RKS/TOTAL (state 1.1)
 Orbital energies read from record       2100.2  Type=RKS/CANONICAL (state 1.1)
 Density matrix read from record         2100.2  Type=RKS/CHARGE (state 1.1)

 Number of core orbitals:           5 (   5 )
 Number of closed-shell orbitals:  16 (  16 )

 Basis set MINAO-AUTO-PP generated.      Number of basis functions:   35 

 Polarized AO type:                A = (O Ot + (1-O)(1-Ot)) P12
 Orthogonalization method:         Symmetric (Loewdin)
 Localization functional:          L = sum[A,i] <i|n_A|i>^4 -> max

 Localization group 1:  21 orbitals, occupancy  2.000
 Iterative localization: IB/PM,    7 iter; Final gradient 0.43E-08

 Bond order analysis:       [THRPRINT= 0.020]

   CEN ATOM   CEN ATOM     WIBERG.BO      RENORM.BO
     1   C  -   2   C       0.996562       0.993187
     1   C  -   5   H       0.960046       0.986115
     1   C  -   6   H       0.955313       0.979867
     1   C  -   7   H       0.955313       0.979867

     2   C  -   1   C       0.996562       0.993187
     2   C  -   9   C       0.995099       0.973995
     2   C  -   8   C       0.995099       0.973995
     2   C  -   3   O       0.935826       0.944238

     3   O  -   2   C       0.935826       0.944238
     3   O  -   4   H       0.859771       0.973702
     3   O  -   9   C       0.030373       0.015537
     3   O  -   8   C       0.030373       0.015537

     4   H  -   3   O       0.859771       0.973702

     5   H  -   1   C       0.960046       0.986115

     6   H  -   1   C       0.955313       0.979867

     7   H  -   1   C       0.955313       0.979867

     8   C  -   2   C       0.995099       0.973995
     8   C  -  14   H       0.959531       0.980687
     8   C  -  10   H       0.955908       0.979706
     8   C  -  12   H       0.955191       0.978979
     8   C  -   3   O       0.030373       0.015537

     9   C  -   2   C       0.995099       0.973995
     9   C  -  15   H       0.959531       0.980687
     9   C  -  11   H       0.955908       0.979706
     9   C  -  13   H       0.955191       0.978979
     9   C  -   3   O       0.030373       0.015537

    10   H  -   8   C       0.955908       0.979706

    11   H  -   9   C       0.955908       0.979706

    12   H  -   8   C       0.955191       0.978979

    13   H  -   9   C       0.955191       0.978979

    14   H  -   8   C       0.959531       0.980687

    15   H  -   9   C       0.959531       0.980687


 Valency analysis:

   CEN ATOM   TOT.VALENCE
     1   C       3.932254
     2   C       3.933649
     3   O       1.930898
     4   H       0.881292
     5   H       0.980247
     6   H       0.977743
     7   H       0.977743
     8   C       3.934928
     9   C       3.934928
    10   H       0.977799
    11   H       0.977799
    12   H       0.979619
    13   H       0.979619
    14   H       0.981942
    15   H       0.981942

 Total charge composition:

   CEN ATOM         s          p       ELECTRONS ->P.CHARGE
     1   C       3.04626    3.38478      6.43104   -0.43104
     2   C       2.94128    2.80986      5.75113    0.24887
     3   O       3.65294    4.91154      8.56448   -0.56448
     4   H       0.65546                 0.65546    0.34454
     5   H       0.85945                 0.85945    0.14055
     6   H       0.85081                 0.85081    0.14919
     7   H       0.85081                 0.85081    0.14919
     8   C       3.05312    3.39143      6.44455   -0.44455
     9   C       3.05312    3.39143      6.44455   -0.44455
    10   H       0.85100                 0.85100    0.14900
    11   H       0.85100                 0.85100    0.14900
    12   H       0.85724                 0.85724    0.14276
    13   H       0.85724                 0.85724    0.14276
    14   H       0.86562                 0.86562    0.13438
    15   H       0.86562                 0.86562    0.13438

 Total charge composition, AO contributions:

   CEN ATOM SHL      SPHERICAL COMPONENTS
     1   C  1s       1.99135
     1   C  2s       1.05491
     1   C  2p       1.04039    1.16599    1.17839

     2   C  1s       1.99296
     2   C  2s       0.94832
     2   C  2p       1.00769    0.79109    1.01108

     3   O  1s       1.99720
     3   O  2s       1.65574
     3   O  2p       1.47275    1.48732    1.95147

     4   H  1s       0.65546

     5   H  1s       0.85945

     6   H  1s       0.85081

     7   H  1s       0.85081

     8   C  1s       1.99145
     8   C  2s       1.06167
     8   C  2p       1.14789    1.14722    1.09632

     9   C  1s       1.99145
     9   C  2s       1.06167
     9   C  2p       1.14789    1.14722    1.09632

    10   H  1s       0.85100

    11   H  1s       0.85100

    12   H  1s       0.85724

    13   H  1s       0.85724

    14   H  1s       0.86562

    15   H  1s       0.86562

 Summary of localized orbital composition:   [THRPRINT= 0.020]

   ORB  GRP  ORB.ENERGY      CENTERS/CHARGES
     1   1   -18.610132      O  3   2.000
     2   1    -9.870207      C  2   2.000
     3   1    -9.778410      C  8   2.000
     4   1    -9.778410      C  9   2.000
     5   1    -9.772936      C  1   2.000
     6   1    -0.701319      O  3   1.347   H  4   0.643
     7   1    -0.660015      O  3   1.281   C  2   0.699
     8   1    -0.523778      C  9   1.007   C  2   0.977
     9   1    -0.523778      C  8   1.007   C  2   0.977
    10   1    -0.523490      C  1   0.990   C  2   0.984   (other: 0.025)
    11   1    -0.517864      O  3   1.980
    12   1    -0.458989      C  8   1.138   H 12   0.847
    13   1    -0.458989      C  9   1.138   H 13   0.847
    14   1    -0.457421      C  8   1.129   H 14   0.858
    15   1    -0.457421      C  9   1.129   H 15   0.858
    16   1    -0.455076      C  1   1.133   H  5   0.852
    17   1    -0.453172      C  9   1.146   H 11   0.842
    18   1    -0.453172      C  8   1.146   H 10   0.842
    19   1    -0.448911      C  1   1.146   H  6   0.842
    20   1    -0.448911      C  1   1.146   H  7   0.842
    21   1    -0.257900      O  3   1.951   (other: 0.049)

 Localized orbitals saved to record      2100.2  (orbital set 2)


 **********************************************************************************************************************************
 DATASETS  * FILE   NREC   LENGTH (MB)   RECORD NAMES
              1      20    37756.57       500      610      700      900      950      970     1000      129      960     1100   
                                          VAR    BASINP    GEOM    SYMINP    ZMAT    AOBASIS   BASIS     P2S    ABASIS      S 
                                         1400     1410     1200     1210     1080     1600     1650     1300     1700     1800   
                                           T        V       H0       H01     AOSYM     SMH    MOLCAS    ERIS     OPER     GRID   

              2       5       12.70       700     1000      520     1800     2100   
                                         GEOM     BASIS   MCVARS    GRID      RKS  

 PROGRAMS   *        TOTAL      IBBA        KS       INT
 CPU TIMES  *      2289.23      0.46   1037.98   1250.62
 REAL TIME  *      6519.03 SEC
 DISK USED  *       168.05 GB      
 **********************************************************************************************************************************
 Molecular orbitals read from record     2100.2  Type=RKS/LOCAL(IBO)  
 Occupation numbers read from record     2100.2  Type=RKS/LOCAL(IBO)  
 Orbital energies read from record       2100.2  Type=RKS/LOCAL(IBO)  
 Redundancy group numbers read from rec  2100.2  Type=RKS/LOCAL(IBO)  

 IBBA/QZVP energy=      0.000000000000

        KS-SCF  
   -233.79415855
 **********************************************************************************************************************************
 Molpro calculation terminated
