
 Primary working directories    : /tmp/sb13343
 Secondary working directories  : /tmp/sb13343
 Wavefunction directory         : /panfs/panasas01/chem/sb13343/wfu/
 Main file repository           : /tmp/sb13343/

 SHA1      : b4a5b34a9e711420743f49e6833241d17c61fb3c
 NAME      : 2099.9.b4a5b34
 ARCHNAME  : linux/x86_64_openmp
 FC        : /cm/shared/languages/GCC-6.1/bin/gfortran
 BLASLIB   : -lblas
 id        : simonbennie

 Nodes     nprocs
 node32-036    1

 Using customized tuning parameters: mindgm=1; mindgv=20; mindgc=4; mindgr=1; noblas=0; minvec=7
 default implementation of scratch files=df  

 memory,500,m
 geomtyp=xyz
 nosym
 noorient
 geometry={
 C          0.00000        0.00000        0.00000
 C          0.00000        0.00000        1.53307
 O          1.40344        0.00000        1.86307
 C          1.76314        0.00000        3.22887
 H         -1.02289        0.00000       -0.39176
 H          0.51995       -0.88625       -0.37815
 H          0.51995        0.88625       -0.37815
 H          2.85677        0.00000        3.25413
 H          1.40708       -0.89217        3.76475
 H          1.40708        0.89217        3.76475
 C         -0.69252       -1.26694        2.06222
 C         -0.69252        1.26694        2.06222
 H         -0.15366       -2.16088        1.72982
 H         -0.15366        2.16088        1.72982
 H         -1.72011       -1.32515        1.68649
 H         -1.72011        1.32515        1.68649
 H         -0.74365       -1.28188        3.15638
 H         -0.74365        1.28188        3.15638
 }
 basis={ default,svp }
 {ks,LSDC,direct;wf,50,1,0}
 {ibba,bonds=1}

 Variables initialized (895), CPU time= 0.00 sec
 Commands  initialized (725), CPU time= 0.01 sec, 591 directives.
 Default parameters read. Elapsed time= 0.08 sec

 Checking input...
 Passed
1


                                         ***  PROGRAM SYSTEM MOLPRO  ***
                                       Copyright, TTI GmbH Stuttgart, 2015
                                    Version 2099.9 linked May 26 2017 16:03:21


 **********************************************************************************************************************************
 LABEL *                                                                                 
  64 bit serial version                                                                  DATE: 09-Jun-17          TIME: 01:53:33  
 **********************************************************************************************************************************

 SHA1:             b4a5b34a9e711420743f49e6833241d17c61fb3c
 **********************************************************************************************************************************
 SETTING GEOMTYP        =    XYZ

 Variable memory set to  500000000 words,  buffer space 

 ZSYMEL=NOSYM

 SETTING BASIS          =    SVP


 Recomputing integrals since basis changed


 Using spherical harmonics

 Library entry C      S def2-SVP             selected for orbital group  1
 Library entry C      P def2-SVP             selected for orbital group  1
 Library entry C      D def2-SVP             selected for orbital group  1
 Library entry O      S def2-SVP             selected for orbital group  2
 Library entry O      P def2-SVP             selected for orbital group  2
 Library entry O      D def2-SVP             selected for orbital group  2
 Library entry H      S def2-SVP             selected for orbital group  4
 Library entry H      P def2-SVP             selected for orbital group  4


 PROGRAM * SEWARD (Integral evaluation for generally contracted gaussian basis sets)     Author: Roland Lindh, 1990

 Geometry written to block  1 of record 700


 Point group  C1  



 ATOMIC COORDINATES

 NR  ATOM    CHARGE       X              Y              Z

   1  C       6.00    0.000000000    0.000000000    0.000000000
   2  C       6.00    0.000000000    0.000000000    2.897082430
   3  O       8.00    2.652117232    0.000000000    3.520692051
   4  C       6.00    3.331851719    0.000000000    6.101679992
   5  H       1.00   -1.932981956    0.000000000   -0.740319107
   6  H       1.00    0.982563098   -1.674769778   -0.714599934
   7  H       1.00    0.982563098    1.674769778   -0.714599934
   8  H       1.00    5.398512901    0.000000000    6.149414474
   9  H       1.00    2.658995835   -1.685956957    7.114346427
  10  H       1.00    2.658995835    1.685956957    7.114346427
  11  C       6.00   -1.308673136   -2.394169616    3.897031009
  12  C       6.00   -1.308673136    2.394169616    3.897031009
  13  H       1.00   -0.290375316   -4.083471388    3.268886045
  14  H       1.00   -0.290375316    4.083471388    3.268886045
  15  H       1.00   -3.250536804   -2.504170574    3.187004212
  16  H       1.00   -3.250536804    2.504170574    3.187004212
  17  H       1.00   -1.405294833   -2.422402125    5.964693745
  18  H       1.00   -1.405294833    2.422402125    5.964693745

 Bond lengths in Bohr (Angstrom)

 1-2  2.897082430  1-5  2.069901355  1-6  2.069042560  1-7  2.069042560  2-3  2.724447609
     ( 1.533070000)     ( 1.095344626)     ( 1.094890171)     ( 1.094890171)     ( 1.441715587)

  2-11  2.905954351   2-12  2.905954351   3- 4  2.668995640   4- 8  2.067212379   4- 9  2.078624355
       ( 1.537764818)       ( 1.537764818)       ( 1.412371669)       ( 1.093921681)       ( 1.099960639)

  4-10  2.078624355  11-13  2.070081404  11-15  2.070524757  11-17  2.070111596  12-14  2.070081404
       ( 1.099960639)       ( 1.095439904)       ( 1.095674516)       ( 1.095455880)       ( 1.095439904)

 12-16  2.070524757  12-18  2.070111596
       ( 1.095674516)       ( 1.095455880)

 Bond angles

  1- 2- 3  103.23196371   1- 2-11  110.12706952   1- 2-12  110.12706952   2- 1- 5  110.95650426

  2- 1- 6  110.20481748   2- 1- 7  110.20481748   2- 3- 4  117.98647004   2-11-13  110.26679927

  2-11-15  110.37287188   2-11-17  112.08316935   2-12-14  110.26679927   2-12-16  110.37287188

  2-12-18  112.08316935   3- 2-11  111.07703285   3- 2-12  111.07703285   3- 4- 8  106.07765410

  3- 4- 9  112.87219182   3- 4-10  112.87219182   5- 1- 6  108.65976572   5- 1- 7  108.65976572

  6- 1- 7  108.08288210   8- 4- 9  108.20190897   8- 4-10  108.20190897   9- 4-10  108.40564999

 11- 2-12  110.95103964  13-11-15  108.29648994  13-11-17  108.35544687  14-12-16  108.29648994

 14-12-18  108.35544687  15-11-17  107.33851825  16-12-18  107.33851825

 NUCLEAR CHARGE:                   50
 NUMBER OF PRIMITIVE AOS:         234
 NUMBER OF SYMMETRY AOS:          228
 NUMBER OF CONTRACTIONS:          144   ( 144A   )
 NUMBER OF CORE ORBITALS:           6   (   6A   )
 NUMBER OF VALENCE ORBITALS:       36   (  36A   )


 NUCLEAR REPULSION ENERGY  270.15500869


 Eigenvalues of metric

         1 0.176E-02 0.508E-02 0.513E-02 0.102E-01 0.124E-01 0.215E-01 0.221E-01 0.252E-01


 Contracted 2-electron integrals neglected if value below      1.0D-11
 AO integral compression algorithm  1   Integral accuracy      1.0D-11

     186.384 MB (compressed) written to integral file ( 41.3%)


 NUMBER OF SORTED TWO-ELECTRON INTEGRALS:   54502020.     BUFFER LENGTH:  32768
 NUMBER OF SEGMENTS:   4  SEGMENT LENGTH:   15999503      RECORD LENGTH: 524288

 Memory used in sort:      16.56 MW

 SORT1 READ    56333432. AND WROTE    45703433. INTEGRALS IN    132 RECORDS. CPU TIME:     0.75 SEC, REAL TIME:     1.95 SEC
 SORT2 READ    45703433. AND WROTE    54502020. INTEGRALS IN    711 RECORDS. CPU TIME:     1.10 SEC, REAL TIME:     1.36 SEC

 FILE SIZES:   FILE 1:   217.4 MBYTE,  FILE 4:   553.7 MBYTE,   TOTAL:    771.1 MBYTE

 OPERATOR DM      FOR CENTER  0  COORDINATES:    0.000000    0.000000    0.000000


 **********************************************************************************************************************************
 DATASETS  * FILE   NREC   LENGTH (MB)   RECORD NAMES
              1      19      194.45       500      610      700      900      950      970     1000      129      960     1100   
                                          VAR    BASINP    GEOM    SYMINP    ZMAT    AOBASIS   BASIS     P2S    ABASIS      S 
                                         1400     1410     1200     1210     1080     1600     1650     1300     1700   
                                           T        V       H0       H01     AOSYM     SMH    MOLCAS    ERIS     OPER   

 PROGRAMS   *        TOTAL       INT
 CPU TIMES  *         7.30      7.16
 REAL TIME  *         9.73 SEC
 DISK USED  *       771.70 MB      
 **********************************************************************************************************************************

 Density functional group LSDC=PW92C
 Functional: PW92C(Automatically generated (new) PW92C)                        Gradient terms: 0
 Use grid at  1800.2

 Functional: PW92C                     Factor:  1.0000

 Generated new metagrid on record  1800.2 with target accuracy 1.0D-06 and 66012 points in CPU time    1.9
 Computed new grid on record 1800.1 in CPU time    2.2
   63846 words reserved for DFT integration

 PROGRAM * RKS-SCF (Restricted closed shell Kohn-Sham)     Authors: W. Meyer, H.-J. Werner, P.J. Knowles, 1993

 NUMBER OF ELECTRONS:      25+   25-    SPACE SYMMETRY=1    SPIN SYMMETRY: Singlet 
 CONVERGENCE THRESHOLDS:    1.00E-05 (Density)    1.00E-06 (Energy)
 MAX. NUMBER OF ITERATIONS:       60
 INTERPOLATION TYPE:            DIIS
 INTERPOLATION STEPS:              2 (START)      1 (STEP)
 LEVEL SHIFTS:                  0.00 (CLOSED)  0.00 (OPEN) 



 Use fine grid record 1800.2 for energy threshold  1.0D-06
 Orbital guess generated from atomic densities. Full valence occupancy:   25

 Molecular orbital dump at record        2100.2

 Initial occupancy:  25

 ITERATION    DDIFF          GRAD             ENERGY        2-EL.EN.            DIPOLE MOMENTS         DIIS   ORB.
    1      0.000D+00      0.000D+00      -234.47559210    726.458881    7.74323   -0.00000    1.06856    0    start
    2      0.000D+00      0.245D-01      -222.08145194    887.474905  -19.69810    0.00000   -3.26759    1    diag
    3      0.237D+00      0.687D-01      -235.20025245    806.730907   -2.48543   -0.00000    1.23252    2    diag
    4      0.573D-01      0.252D-01      -236.24983532    782.459139   -2.74908    0.00000   -0.09903    3    diag
    5      0.197D-01      0.122D-01      -236.53805582    782.244997   -0.99227    0.00000    0.31131    4    diag
    6      0.139D-01      0.782D-02      -236.66498553    769.797008   -0.14866   -0.00000    0.24639    5    diag
    7      0.142D-01      0.327D-02      -236.68561957    771.772743    0.10563   -0.00000    0.15065    6    diag
    8      0.584D-02      0.123D-02      -236.68953339    769.516794   -0.06135    0.00000    0.07072    7    diag
    9      0.241D-02      0.371D-03      -236.68993278    770.119821    0.01905    0.00000    0.10932    8    diag
   10      0.691D-03      0.140D-03      -236.68998309    770.042139    0.02682   -0.00000    0.11771    9    orth
   11      0.150D-03      0.237D-04      -236.68998490    770.064674    0.01739    0.00000    0.11269    9    diag
   12      0.579D-04      0.562D-05      -236.68998500    770.060336    0.01794    0.00000    0.11383    9    diag
   13      0.116D-04      0.238D-05      -236.68998501    770.059703    0.01822    0.00000    0.11357    9    diag
   14      0.345D-05      0.637D-06      -236.68998501    770.058891    0.01812   -0.00000    0.11355    0    orth

 Final occupancy:  25

 !RKS STATE 1.1 Energy               -236.689985008374
 Nuclear energy                       270.15500869
 One-electron energy                 -888.82145767
 Two-electron energy                  385.02944562
 Density functional                    -3.05298165     PW92C=-3.05298165
 Virial quotient                       -0.93103746
 !RKS STATE 1.1 Dipole moment           0.01811807    -0.00000000     0.11354568
 Dipole moment /Debye                   0.04604853    -0.00000000     0.28858542

 Orbital energies:

         1.1          2.1          3.1          4.1          5.1          6.1          7.1          8.1          9.1         10.1
    -16.643557    -8.282675    -8.277291    -8.248706    -8.248301    -8.243402    -0.612612    -0.425863    -0.333977    -0.324878

        11.1         12.1         13.1         14.1         15.1         16.1         17.1         18.1         19.1         20.1
     -0.297739    -0.203902    -0.173162    -0.156755    -0.153594    -0.126773    -0.106581    -0.087288    -0.065486    -0.057843

        21.1         22.1         23.1         24.1         25.1         26.1         27.1
     -0.045559    -0.037816    -0.037404     0.026406     0.067204     0.171308     0.207419

 HOMO     25.1     0.067204 =       1.8287eV
 LUMO     26.1     0.171308 =       4.6615eV
 LUMO-HOMO         0.104104 =       2.8328eV


 **********************************************************************************************************************************
 DATASETS  * FILE   NREC   LENGTH (MB)   RECORD NAMES
              1      20      196.57       500      610      700      900      950      970     1000      129      960     1100   
                                          VAR    BASINP    GEOM    SYMINP    ZMAT    AOBASIS   BASIS     P2S    ABASIS      S 
                                         1400     1410     1200     1210     1080     1600     1650     1300     1700     1800   
                                           T        V       H0       H01     AOSYM     SMH    MOLCAS    ERIS     OPER     GRID   

              2       5        3.48       700     1000      520     1800     2100   
                                         GEOM     BASIS   MCVARS    GRID      RKS  

 PROGRAMS   *        TOTAL        KS       INT
 CPU TIMES  *        25.44     18.14      7.16
 REAL TIME  *        28.57 SEC
 DISK USED  *       771.70 MB      
 **********************************************************************************************************************************


 PROGRAM * Intrinsic Basis Bonding Analysis (IBBA)          Author: G. Knizia

 Molecular orbitals read from record     2100.2  Type=RKS/CANONICAL (state 1.1)
 Fock matrix read from record            2100.2  Type=RKS/TOTAL (state 1.1)
 Orbital energies read from record       2100.2  Type=RKS/CANONICAL (state 1.1)
 Density matrix read from record         2100.2  Type=RKS/CHARGE (state 1.1)

 Number of core orbitals:           6 (   6 )
 Number of closed-shell orbitals:  19 (  19 )

 Basis set MINAO-AUTO-PP generated.      Number of basis functions:   42 

 Polarized AO type:                A = (O Ot + (1-O)(1-Ot)) P12
 Orthogonalization method:         Symmetric (Loewdin)
 Localization functional:          L = sum[A,i] <i|n_A|i>^4 -> max

 Localization group 1:  25 orbitals, occupancy  2.000
 Iterative localization: IB/PM,    7 iter; Final gradient 0.97E-08

 Bond order analysis:       [THRPRINT= 0.020]

   CEN ATOM   CEN ATOM     WIBERG.BO      RENORM.BO
     1   C  -   2   C       0.986217       0.995346
     1   C  -   5   H       0.955656       0.962734
     1   C  -   6   H       0.949064       0.950224
     1   C  -   7   H       0.949064       0.950224
     1   C  -   3   O       0.037385       0.021635

     2   C  -   1   C       0.986217       0.995346
     2   C  -  12   C       0.978272       0.968381
     2   C  -  11   C       0.978272       0.968381
     2   C  -   3   O       0.960146       0.928736

     3   O  -   4   C       1.086971       1.046046
     3   O  -   2   C       0.960146       0.928736
     3   O  -   9   H       0.061063       0.033667
     3   O  -  10   H       0.061063       0.033667
     3   O  -  12   C       0.040717       0.021962
     3   O  -  11   C       0.040717       0.021962
     3   O  -   1   C       0.037385       0.021635
     3   O  -   5   H       0.022497       0.016379
     3   O  -  16   H       0.021876       0.017408
     3   O  -  15   H       0.021876       0.017408

     4   C  -   3   O       1.086971       1.046046
     4   C  -   8   H       0.958484       0.963176
     4   C  -  10   H       0.919733       0.872885
     4   C  -   9   H       0.919733       0.872885

     5   H  -   1   C       0.955656       0.962734
     5   H  -   3   O       0.022497       0.016379

     6   H  -   1   C       0.949064       0.950224
     6   H  -  12   C       0.023176       0.023617

     7   H  -   1   C       0.949064       0.950224
     7   H  -  11   C       0.023176       0.023617

     8   H  -   4   C       0.958484       0.963176

     9   H  -   4   C       0.919733       0.872885
     9   H  -   3   O       0.061063       0.033667

    10   H  -   4   C       0.919733       0.872885
    10   H  -   3   O       0.061063       0.033667

    11   C  -   2   C       0.978272       0.968381
    11   C  -  15   H       0.953271       0.969749
    11   C  -  13   H       0.949773       0.952718
    11   C  -  17   H       0.948248       0.955397
    11   C  -   3   O       0.040717       0.021962
    11   C  -   7   H       0.023176       0.023617
    11   C  -  14   H       0.022105       0.022522

    12   C  -   2   C       0.978272       0.968381
    12   C  -  16   H       0.953271       0.969749
    12   C  -  14   H       0.949773       0.952718
    12   C  -  18   H       0.948248       0.955397
    12   C  -   3   O       0.040717       0.021962
    12   C  -   6   H       0.023176       0.023617
    12   C  -  13   H       0.022105       0.022522

    13   H  -  11   C       0.949773       0.952718
    13   H  -  12   C       0.022105       0.022522

    14   H  -  12   C       0.949773       0.952718
    14   H  -  11   C       0.022105       0.022522

    15   H  -  11   C       0.953271       0.969749
    15   H  -   3   O       0.021876       0.017408

    16   H  -  12   C       0.953271       0.969749
    16   H  -   3   O       0.021876       0.017408

    17   H  -  11   C       0.948248       0.955397

    18   H  -  12   C       0.948248       0.955397


 Valency analysis:

   CEN ATOM   TOT.VALENCE
     1   C       3.967777
     2   C       3.949676
     3   O       2.399910
     4   C       3.932348
     5   H       0.998365
     6   H       0.998372
     7   H       0.998372
     8   H       0.997763
     9   H       0.999956
    10   H       0.999956
    11   C       3.961279
    12   C       3.961279
    13   H       0.998348
    14   H       0.998348
    15   H       0.997385
    16   H       0.997385
    17   H       0.997922
    18   H       0.997922

 Total charge composition:

   CEN ATOM         s          p       ELECTRONS ->P.CHARGE
     1   C       2.91314    3.24702      6.16017   -0.16017
     2   C       2.84256    2.91984      5.76240    0.23760
     3   O       3.48801    4.63993      8.12794   -0.12794
     4   C       2.88962    3.13980      6.02942   -0.02942
     5   H       0.95957                 0.95957    0.04043
     6   H       0.95966                 0.95966    0.04034
     7   H       0.95966                 0.95966    0.04034
     8   H       0.95270                 0.95270    0.04730
     9   H       0.99339                 0.99339    0.00661
    10   H       0.99339                 0.99339    0.00661
    11   C       2.90399    3.28424      6.18822   -0.18822
    12   C       2.90399    3.28424      6.18822   -0.18822
    13   H       0.95936                 0.95936    0.04064
    14   H       0.95936                 0.95936    0.04064
    15   H       0.94887                 0.94887    0.05113
    16   H       0.94887                 0.94887    0.05113
    17   H       0.95441                 0.95441    0.04559
    18   H       0.95441                 0.95441    0.04559

 Total charge composition, AO contributions:

   CEN ATOM SHL      SPHERICAL COMPONENTS
     1   C  1s       1.99772
     1   C  2s       0.91543
     1   C  2p       1.10248    1.10976    1.03478

     2   C  1s       1.99830
     2   C  2s       0.84426
     2   C  2p       0.86346    1.02678    1.02960

     3   O  1s       1.99901
     3   O  2s       1.48900
     3   O  2p       1.39316    1.82781    1.41896

     4   C  1s       1.99792
     4   C  2s       0.89170
     4   C  2p       1.11025    1.12856    0.90099

     5   H  1s       0.95957

     6   H  1s       0.95966

     7   H  1s       0.95966

     8   H  1s       0.95270

     9   H  1s       0.99339

    10   H  1s       0.99339

    11   C  1s       1.99774
    11   C  2s       0.90625
    11   C  2p       1.10249    1.07411    1.10763

    12   C  1s       1.99774
    12   C  2s       0.90625
    12   C  2p       1.10249    1.07411    1.10763

    13   H  1s       0.95936

    14   H  1s       0.95936

    15   H  1s       0.94887

    16   H  1s       0.94887

    17   H  1s       0.95441

    18   H  1s       0.95441

 Summary of localized orbital composition:   [THRPRINT= 0.020]

   ORB  GRP  ORB.ENERGY      CENTERS/CHARGES
     1   1   -16.557823      O  3   2.000
     2   1    -8.209557      C  2   2.000
     3   1    -8.206941      C  4   2.000
     4   1    -8.168797      C 12   2.000
     5   1    -8.168797      C 11   2.000
     6   1    -8.162957      C  1   2.000
     7   1    -0.413928      O  3   1.172   C  4   0.818
     8   1    -0.386676      O  3   1.199   C  2   0.765   (other: 0.036)
     9   1    -0.239876      C 12   1.021   C  2   0.946   (other: 0.032)
    10   1    -0.239876      C 11   1.021   C  2   0.946   (other: 0.032)
    11   1    -0.237405      C  1   1.002   C  2   0.962   (other: 0.037)
    12   1    -0.173977      C  4   1.039   H 10   0.954
    13   1    -0.173977      C  4   1.039   H  9   0.954
    14   1    -0.173109      C  4   1.047   H  8   0.940
    15   1    -0.167087      C 11   1.041   H 15   0.935   (other: 0.024)
    16   1    -0.167087      C 12   1.041   H 16   0.935   (other: 0.024)
    17   1    -0.165845      C 11   1.042   H 17   0.937   (other: 0.021)
    18   1    -0.165845      C 12   1.042   H 18   0.937   (other: 0.021)
    19   1    -0.164935      C 11   1.038   H 13   0.943
    20   1    -0.164935      C 12   1.038   H 14   0.943
    21   1    -0.162277      C  1   1.035   H  5   0.945
    22   1    -0.160023      C  1   1.039   H  7   0.942
    23   1    -0.160023      C  1   1.039   H  6   0.942
    24   1    -0.119371      O  3   1.916   (other: 0.084)
    25   1     0.013568      O  3   1.828   C  4   0.044   C  2   0.030   H 10   0.026   H  9   0.026   (other: 0.046)

 Localized orbitals saved to record      2100.2  (orbital set 2)


 **********************************************************************************************************************************
 DATASETS  * FILE   NREC   LENGTH (MB)   RECORD NAMES
              1      20      196.57       500      610      700      900      950      970     1000      129      960     1100   
                                          VAR    BASINP    GEOM    SYMINP    ZMAT    AOBASIS   BASIS     P2S    ABASIS      S 
                                         1400     1410     1200     1210     1080     1600     1650     1300     1700     1800   
                                           T        V       H0       H01     AOSYM     SMH    MOLCAS    ERIS     OPER     GRID   

              2       5        3.65       700     1000      520     1800     2100   
                                         GEOM     BASIS   MCVARS    GRID      RKS  

 PROGRAMS   *        TOTAL      IBBA        KS       INT
 CPU TIMES  *        25.49      0.05     18.14      7.16
 REAL TIME  *        28.74 SEC
 DISK USED  *       771.70 MB      
 **********************************************************************************************************************************
 Molecular orbitals read from record     2100.2  Type=RKS/LOCAL(IBO)  
 Occupation numbers read from record     2100.2  Type=RKS/LOCAL(IBO)  
 Orbital energies read from record       2100.2  Type=RKS/LOCAL(IBO)  
 Redundancy group numbers read from rec  2100.2  Type=RKS/LOCAL(IBO)  

 IBBA/SVP energy=      0.000000000000

        KS-SCF  
   -236.68998501
 **********************************************************************************************************************************
 Molpro calculation terminated
