
 Primary working directories    : /local
 Secondary working directories  : /local
 Wavefunction directory         : /local/
 Main file repository           : /local/

 SHA1      : b4a5b34a9e711420743f49e6833241d17c61fb3c
 NAME      : 2099.9.b4a5b34
 ARCHNAME  : linux/x86_64_openmp
 FC        : /cm/shared/languages/GCC-6.1/bin/gfortran
 BLASLIB   : -lblas
 id        : simonbennie

 Nodes     nprocs
 node33-013    1

 Using customized tuning parameters: mindgm=1; mindgv=20; mindgc=4; mindgr=1; noblas=0; minvec=7
 default implementation of scratch files=df  

 memory,500,m
 geomtyp=xyz
 nosym
 noorient
 geometry={
 C         -1.53233        0.02247        0.00000
 C         -0.00192        0.01421        0.00000
 O          0.37239        1.40356        0.00000
 H          1.34248        1.44036        0.00000
 H         -1.92991       -0.99819        0.00000
 H         -1.90797        0.54382       -0.88653
 H         -1.90797        0.54382        0.88653
 C          0.54303       -0.66466       -1.26580
 C          0.54303       -0.66466        1.26580
 H          0.17836       -0.14752       -2.15943
 H          0.17836       -0.14752        2.15943
 H          0.23752       -1.71600       -1.32280
 H          0.23752       -1.71600        1.32280
 H          1.64084       -0.63767       -1.28032
 H          1.64084       -0.63767        1.28032
 }
 basis={ default,avtz }
 {uks,SLATER,direct;wf,42,1,0}
 {ibba,bonds=1}

 Variables initialized (895), CPU time= 0.01 sec
 Commands  initialized (725), CPU time= 0.01 sec, 591 directives.
 Default parameters read. Elapsed time= 0.09 sec

 Checking input...
 Passed
1


                                         ***  PROGRAM SYSTEM MOLPRO  ***
                                       Copyright, TTI GmbH Stuttgart, 2015
                                    Version 2099.9 linked May 26 2017 16:03:21


 **********************************************************************************************************************************
 LABEL *                                                                                 
  64 bit serial version                                                                  DATE: 12-Jun-17          TIME: 14:17:28  
 **********************************************************************************************************************************

 SHA1:             b4a5b34a9e711420743f49e6833241d17c61fb3c
 **********************************************************************************************************************************
 SETTING GEOMTYP        =    XYZ

 Variable memory set to  500000000 words,  buffer space 

 ZSYMEL=NOSYM

 SETTING BASIS          =    AVTZ


 Recomputing integrals since basis changed


 Using spherical harmonics

 Library entry C      S aug-cc-pVTZ          selected for orbital group  1
 Library entry C      P aug-cc-pVTZ          selected for orbital group  1
 Library entry C      D aug-cc-pVTZ          selected for orbital group  1
 Library entry C      F aug-cc-pVTZ          selected for orbital group  1
 Library entry O      S aug-cc-pVTZ          selected for orbital group  2
 Library entry O      P aug-cc-pVTZ          selected for orbital group  2
 Library entry O      D aug-cc-pVTZ          selected for orbital group  2
 Library entry O      F aug-cc-pVTZ          selected for orbital group  2
 Library entry H      S aug-cc-pVTZ          selected for orbital group  3
 Library entry H      P aug-cc-pVTZ          selected for orbital group  3
 Library entry H      D aug-cc-pVTZ          selected for orbital group  3


 PROGRAM * SEWARD (Integral evaluation for generally contracted gaussian basis sets)     Author: Roland Lindh, 1990

 Geometry written to block  1 of record 700


 Point group  C1  



 ATOMIC COORDINATES

 NR  ATOM    CHARGE       X              Y              Z

   1  C       6.00   -2.895684032    0.042462146    0.000000000
   2  C       6.00   -0.003628274    0.026853008    0.000000000
   3  O       8.00    0.703715112    2.652343999    0.000000000
   4  H       1.00    2.536919528    2.721885921    0.000000000
   5  H       1.00   -3.647001345   -1.886305720    0.000000000
   6  H       1.00   -3.605540754    1.027670861   -1.675298901
   7  H       1.00   -3.605540754    1.027670861    1.675298901
   8  C       6.00    1.026177977   -1.256025366   -2.392015328
   9  C       6.00    1.026177977   -1.256025366    2.392015328
  10  H       1.00    0.337051552   -0.278772398   -4.080731285
  11  H       1.00    0.337051552   -0.278772398    4.080731285
  12  H       1.00    0.448847749   -3.242770030   -2.499729718
  13  H       1.00    0.448847749   -3.242770030    2.499729718
  14  H       1.00    3.100738214   -1.205021658   -2.419454152
  15  H       1.00    3.100738214   -1.205021658    2.419454152

 Bond lengths in Bohr (Angstrom)

 1-2  2.892097881  1-5  2.069933136  1-6  2.069096224  1-7  2.069096224  2-3  2.719106031
     ( 1.530432290)     ( 1.095361444)     ( 1.094918569)     ( 1.094918569)     ( 1.438888946)

  2- 8  2.903104402   2- 9  2.903104402   3- 4  1.834522965   8-10  2.069222119   8-12  2.071730422
       ( 1.536256691)       ( 1.536256691)       ( 0.970787746)       ( 1.094985190)       ( 1.096312526)

  8-14  2.075368508   9-11  2.069222119   9-13  2.071730422   9-15  2.075368508
       ( 1.098237719)       ( 1.094985190)       ( 1.096312526)       ( 1.098237719)

 Bond angles

  1-2-3  104.76902697   1-2-8  110.92255387   1-2-9  110.92255387   2-1-5  110.97328220

  2- 1- 6  110.22090701   2- 1- 7  110.22090701   2- 3- 4  107.25071562   2- 8-10  110.21836376

  2- 8-12  111.57747468   2- 8-14  110.77023896   2- 9-11  110.21836376   2- 9-13  111.57747468

  2- 9-15  110.77023896   3- 2- 8  109.53648747   3- 2- 9  109.53648747   5- 1- 6  108.61190457

  5- 1- 7  108.61190457   6- 1- 7  108.12870271   8- 2- 9  110.96453384  10- 8-12  108.52192632

 10- 8-14  108.08997829  11- 9-13  108.52192632  11- 9-15  108.08997829  12- 8-14  107.54424578

 13- 9-15  107.54424578

 NUCLEAR CHARGE:                   42
 NUMBER OF PRIMITIVE AOS:         605
 NUMBER OF SYMMETRY AOS:          540
 NUMBER OF CONTRACTIONS:          460   ( 460A   )
 NUMBER OF CORE ORBITALS:           5   (   5A   )
 NUMBER OF VALENCE ORBITALS:       30   (  30A   )


 NUCLEAR REPULSION ENERGY  198.77359127


 Eigenvalues of metric

         1 0.351E-05 0.596E-05 0.770E-05 0.977E-05 0.161E-04 0.173E-04 0.207E-04 0.297E-04


 Contracted 2-electron integrals neglected if value below      1.0D-12
 AO integral compression algorithm  1   Integral accuracy      1.0D-12

     24892.932 MB (compressed) written to integral file ( 51.7%)


 NUMBER OF SORTED TWO-ELECTRON INTEGRALS: 5621233465.     BUFFER LENGTH:  32768
 NUMBER OF SEGMENTS: 176  SEGMENT LENGTH:   31999951      RECORD LENGTH: 131072

 Memory used in sort:      32.16 MW

 SORT1 READ  6020115514. AND WROTE  5366777799. INTEGRALS IN  61513 RECORDS. CPU TIME:    81.18 SEC, REAL TIME:  4606.54 SEC
 SORT2 READ  5366777799. AND WROTE  5621233465. INTEGRALS IN  94959 RECORDS. CPU TIME:   130.32 SEC, REAL TIME:  3976.52 SEC

 FILE SIZES:   FILE 1: 24930.9 MBYTE,  FILE 4: 64501.1 MBYTE,   TOTAL:  89432.0 MBYTE

 OPERATOR DM      FOR CENTER  0  COORDINATES:    0.000000    0.000000    0.000000


 **********************************************************************************************************************************
 DATASETS  * FILE   NREC   LENGTH (MB)   RECORD NAMES
              1      19    23757.53       500      610      700      900      950      970     1000      129      960     1100   
                                          VAR    BASINP    GEOM    SYMINP    ZMAT    AOBASIS   BASIS     P2S    ABASIS      S 
                                         1400     1410     1200     1210     1080     1600     1650     1300     1700   
                                           T        V       H0       H01     AOSYM     SMH    MOLCAS    ERIS     OPER   

 PROGRAMS   *        TOTAL       INT
 CPU TIMES  *       422.49    422.35
 REAL TIME  *      9414.53 SEC
 DISK USED  *        89.43 GB      
 **********************************************************************************************************************************

 Density functional group SLATER=DIRAC
 Functional: DIRAC(Automatically generated (new) DIRAC)                        Gradient terms: 0
 Use grid at  1800.2

 Functional: DIRAC                     Factor:  1.0000

 Generated new metagrid on record  1800.2 with target accuracy 1.0D-06 and 55396 points in CPU time    1.6
 Computed new grid on record 1800.1 in CPU time    1.8
  195064 words reserved for DFT integration

 PROGRAM * UKS-SCF (Unrestricted Kohn-Sham)     Authors: W. Meyer, H.-J. Werner, P.J. Knowles, 1993

 NUMBER OF ELECTRONS:      21+   21-    SPACE SYMMETRY=1    SPIN SYMMETRY: Singlet 
 CONVERGENCE THRESHOLDS:    1.00E-05 (Density)    1.00E-06 (Energy)
 MAX. NUMBER OF ITERATIONS:       60
 INTERPOLATION TYPE:            DIIS
 INTERPOLATION STEPS:              2 (START)      1 (STEP)
 LEVEL SHIFTS:                 -0.20 (ALPHA)  -0.20 (BETA) 



 Use fine grid record 1800.2 for energy threshold  1.0D-06
 Orbital guess generated from atomic densities. Full valence occupancy:   35

 Molecular orbital dump at record        2200.2

 Initial alpha occupation  21
 Initial beta  occupation  21

 ITERATION    DDIFF          GRAD             ENERGY        2-EL.EN.            DIPOLE MOMENTS         DIIS
    1      0.000D+00      0.000D+00      -228.76865608    638.123408    0.70442   -0.75515    0.00000    0
    2      0.857D-02      0.169D-02      -228.99819157    611.570556    0.17741   -0.50676    0.00000    1
    3      0.291D-02      0.101D-02      -229.07799486    620.123801    0.35329   -0.57929    0.00000    2
    4      0.480D-03      0.121D-03      -229.07932745    619.693025    0.33225   -0.51887    0.00000    3
    5      0.266D-03      0.665D-04      -229.07983992    619.697110    0.33184   -0.53385    0.00000    4
    6      0.292D-03      0.192D-04      -229.07999100    619.621940    0.32778   -0.52321    0.00000    5
    7      0.985D-04      0.740D-05      -229.08000277    619.573306    0.32514   -0.52338    0.00000    6
    8      0.496D-04      0.469D-05      -229.08000635    619.589325    0.32493   -0.52410    0.00000    7
    9      0.164D-04      0.666D-06      -229.08000660    619.585943    0.32487   -0.52325    0.00000    7
   10      0.506D-05      0.240D-06      -229.08000662    619.586281    0.32466   -0.52362    0.00000    7
   11      0.260D-05      0.774D-07      -229.08000663    619.586480    0.32470   -0.52351    0.00000    7

 Final alpha occupancy:  21
 Final beta  occupancy:  21

 !UKS STATE 1.1 Energy               -229.080006627110
 Nuclear energy                       198.77359127
 One-electron energy                 -708.54558460
 Two-electron energy                  309.79323999
 Density functional                   -29.10125329     DIRAC=-29.10125329
 Virial quotient                       -0.99994501
 !UKS STATE 1.1 Dipole moment           0.32470064    -0.52351399     0.00000000
 Dipole moment /Debye                   0.82525265    -1.33055270     0.00000000

 Orbital energies for positive spin:

         1.1          2.1          3.1          4.1          5.1          6.1          7.1          8.1          9.1         10.1
    -18.541054    -9.775661    -9.705611    -9.705600    -9.700386    -0.881964    -0.668100    -0.576955    -0.576435    -0.469457

        11.1         12.1         13.1         14.1         15.1         16.1         17.1         18.1         19.1         20.1
     -0.397833    -0.363360    -0.360840    -0.323130    -0.309417    -0.292550    -0.276549    -0.269238    -0.262186    -0.237440

        21.1         22.1         23.1
     -0.186699    -0.009458     0.013707

 Orbital energies for negative spin:

         1.1          2.1          3.1          4.1          5.1          6.1          7.1          8.1          9.1         10.1
    -18.541054    -9.775661    -9.705611    -9.705600    -9.700386    -0.881964    -0.668100    -0.576955    -0.576435    -0.469457

        11.1         12.1         13.1         14.1         15.1         16.1         17.1         18.1         19.1         20.1
     -0.397833    -0.363360    -0.360840    -0.323130    -0.309417    -0.292550    -0.276549    -0.269238    -0.262186    -0.237440

        21.1         22.1         23.1
     -0.186699    -0.009458     0.013707

 HOMO     21.1    -0.186699 =      -5.0803eV
 LUMO     22.1    -0.009458 =      -0.2574eV
 LUMO-HOMO         0.177241 =       4.8230eV

 EXPECTATION VALUE OF S**2:             0.00000000

 Natural orbitals saved to record    2200.2 (Orbital set 3)

 Orbital spaces for UNO-CAS (Min. occupation: 0.020  Max. occupation: 1.980):

 Closed:       21
 Active:        0


 **********************************************************************************************************************************
 DATASETS  * FILE   NREC   LENGTH (MB)   RECORD NAMES
              1      20    23759.30       500      610      700      900      950      970     1000      129      960     1100   
                                          VAR    BASINP    GEOM    SYMINP    ZMAT    AOBASIS   BASIS     P2S    ABASIS      S 
                                         1400     1410     1200     1210     1080     1600     1650     1300     1700     1800   
                                           T        V       H0       H01     AOSYM     SMH    MOLCAS    ERIS     OPER     GRID   

              2       5       11.56       700     1000      520     1800     2200   
                                         GEOM     BASIS   MCVARS    GRID      UKS  

 PROGRAMS   *        TOTAL       UKS       INT
 CPU TIMES  *      1008.09    585.60    422.35
 REAL TIME  *     10565.92 SEC
 DISK USED  *        89.43 GB      
 **********************************************************************************************************************************


 PROGRAM * Intrinsic Basis Bonding Analysis (IBBA)          Author: G. Knizia

 Molecular orbitals read from record     2200.2  Type=UKS/ALPHA (state 1.1)
 Fock matrix read from record            2200.2  Type=UKS/TOTAL (state 1.1)
 Orbital energies read from record       2200.2  Type=UKS/ALPHA (state 1.1)
 Density matrix read from record         2200.2  Type=UKS/CHARGE (state 1.1)

 Number of core orbitals:           5 (   5 )
 Number of closed-shell orbitals:  16 (  16 )

 Basis set MINAO-AUTO-PP generated.      Number of basis functions:   35 

 Polarized AO type:                A = (O Ot + (1-O)(1-Ot)) P12
 Orthogonalization method:         Symmetric (Loewdin)
 Localization functional:          L = sum[A,i] <i|n_A|i>^4 -> max

 Localization group 1:  21 orbitals, occupancy  2.000
 Iterative localization: IB/PM,    7 iter; Final gradient 0.59E-08

 Bond order analysis:       [THRPRINT= 0.020]

   CEN ATOM   CEN ATOM     WIBERG.BO      RENORM.BO
     1   C  -   2   C       0.995855       0.992282
     1   C  -   5   H       0.955721       0.984899
     1   C  -   6   H       0.950753       0.977953
     1   C  -   7   H       0.950753       0.977953

     2   C  -   1   C       0.995855       0.992282
     2   C  -   9   C       0.995141       0.973182
     2   C  -   8   C       0.995141       0.973182
     2   C  -   3   O       0.937187       0.938326

     3   O  -   2   C       0.937187       0.938326
     3   O  -   4   H       0.857573       0.969577
     3   O  -   8   C       0.032198       0.016534
     3   O  -   9   C       0.032198       0.016534
     3   O  -  13   H       0.020506       0.016297
     3   O  -  12   H       0.020506       0.016297

     4   H  -   3   O       0.857573       0.969577

     5   H  -   1   C       0.955721       0.984899

     6   H  -   1   C       0.950753       0.977953

     7   H  -   1   C       0.950753       0.977953

     8   C  -   2   C       0.995141       0.973182
     8   C  -  14   H       0.954911       0.978912
     8   C  -  10   H       0.951347       0.977685
     8   C  -  12   H       0.950536       0.977473
     8   C  -   3   O       0.032198       0.016534

     9   C  -   2   C       0.995141       0.973182
     9   C  -  15   H       0.954911       0.978912
     9   C  -  11   H       0.951347       0.977685
     9   C  -  13   H       0.950536       0.977473
     9   C  -   3   O       0.032198       0.016534

    10   H  -   8   C       0.951347       0.977685

    11   H  -   9   C       0.951347       0.977685

    12   H  -   8   C       0.950536       0.977473
    12   H  -   3   O       0.020506       0.016297

    13   H  -   9   C       0.950536       0.977473
    13   H  -   3   O       0.020506       0.016297

    14   H  -   8   C       0.954911       0.978912

    15   H  -   9   C       0.954911       0.978912


 Valency analysis:

   CEN ATOM   TOT.VALENCE
     1   C       3.924474
     2   C       3.936544
     3   O       1.940146
     4   H       0.881716
     5   H       0.978444
     6   H       0.976006
     7   H       0.976006
     8   C       3.927203
     9   C       3.927203
    10   H       0.976018
    11   H       0.976018
    12   H       0.977708
    13   H       0.977708
    14   H       0.980330
    15   H       0.980330

 Total charge composition:

   CEN ATOM         s          p       ELECTRONS ->P.CHARGE
     1   C       3.03601    3.41421      6.45022   -0.45022
     2   C       2.92823    2.82441      5.75263    0.24737
     3   O       3.64307    4.91468      8.55775   -0.55775
     4   H       0.65607                 0.65607    0.34393
     5   H       0.85318                 0.85318    0.14682
     6   H       0.84510                 0.84510    0.15490
     7   H       0.84510                 0.84510    0.15490
     8   C       3.04354    3.42085      6.46439   -0.46439
     9   C       3.04354    3.42085      6.46439   -0.46439
    10   H       0.84514                 0.84514    0.15486
    11   H       0.84514                 0.84514    0.15486
    12   H       0.85069                 0.85069    0.14931
    13   H       0.85069                 0.85069    0.14931
    14   H       0.85975                 0.85975    0.14025
    15   H       0.85975                 0.85975    0.14025

 Total charge composition, AO contributions:

   CEN ATOM SHL      SPHERICAL COMPONENTS
     1   C  1s       1.99220
     1   C  2s       1.04381
     1   C  2p       1.04683    1.17745    1.18993

     2   C  1s       1.99374
     2   C  2s       0.93449
     2   C  2p       1.01112    0.79900    1.01429

     3   O  1s       1.99741
     3   O  2s       1.64566
     3   O  2p       1.47649    1.48933    1.94886

     4   H  1s       0.65607

     5   H  1s       0.85318

     6   H  1s       0.84510

     7   H  1s       0.84510

     8   C  1s       1.99230
     8   C  2s       1.05124
     8   C  2p       1.15827    1.15837    1.10421

     9   C  1s       1.99230
     9   C  2s       1.05124
     9   C  2p       1.15827    1.15837    1.10421

    10   H  1s       0.84514

    11   H  1s       0.84514

    12   H  1s       0.85069

    13   H  1s       0.85069

    14   H  1s       0.85975

    15   H  1s       0.85975

 Summary of localized orbital composition:   [THRPRINT= 0.020]

   ORB  GRP  ORB.ENERGY      CENTERS/CHARGES
     1   1   -18.394694      O  3   2.000
     2   1    -9.688612      C  2   2.000
     3   1    -9.596646      C  8   2.000
     4   1    -9.596646      C  9   2.000
     5   1    -9.590689      C  1   2.000
     6   1    -0.652614      O  3   1.348   H  4   0.641
     7   1    -0.618148      O  3   1.277   C  2   0.703
     8   1    -0.478391      C  8   1.009   C  2   0.974
     9   1    -0.478391      C  9   1.009   C  2   0.974
    10   1    -0.477863      C  1   0.992   C  2   0.981   (other: 0.027)
    11   1    -0.457133      O  3   1.979   (other: 0.021)
    12   1    -0.408368      C  9   1.144   H 13   0.839
    13   1    -0.408368      C  8   1.144   H 12   0.839
    14   1    -0.407191      C  8   1.134   H 14   0.851
    15   1    -0.407191      C  9   1.134   H 15   0.851
    16   1    -0.404203      C  1   1.139   H  5   0.845
    17   1    -0.402241      C  9   1.152   H 11   0.835
    18   1    -0.402241      C  8   1.152   H 10   0.835
    19   1    -0.397790      C  1   1.151   H  6   0.835
    20   1    -0.397790      C  1   1.151   H  7   0.835
    21   1    -0.215176      O  3   1.949   (other: 0.051)

 Localized orbitals saved to record      2200.2  (orbital set 4)


 **********************************************************************************************************************************
 DATASETS  * FILE   NREC   LENGTH (MB)   RECORD NAMES
              1      20    23759.30       500      610      700      900      950      970     1000      129      960     1100   
                                          VAR    BASINP    GEOM    SYMINP    ZMAT    AOBASIS   BASIS     P2S    ABASIS      S 
                                         1400     1410     1200     1210     1080     1600     1650     1300     1700     1800   
                                           T        V       H0       H01     AOSYM     SMH    MOLCAS    ERIS     OPER     GRID   

              2       5       13.27       700     1000      520     1800     2200   
                                         GEOM     BASIS   MCVARS    GRID      UKS  

 PROGRAMS   *        TOTAL      IBBA       UKS       INT
 CPU TIMES  *      1008.35      0.26    585.60    422.35
 REAL TIME  *     10566.40 SEC
 DISK USED  *        89.43 GB      
 **********************************************************************************************************************************
 Molecular orbitals read from record     2200.2  Type=UKS/LOCAL(IBO)  
 Occupation numbers read from record     2200.2  Type=UKS/LOCAL(IBO)  
 Orbital energies read from record       2200.2  Type=UKS/LOCAL(IBO)  
 Redundancy group numbers read from rec  2200.2  Type=UKS/BETA (state 1.1)

 IBBA/aug-cc-pVTZ energy=      0.000000000000

        UKS-SCF 
   -229.08000663
 **********************************************************************************************************************************
 Molpro calculation terminated
