
 Primary working directories    : /tmp/sb13343
 Secondary working directories  : /tmp/sb13343
 Wavefunction directory         : /panfs/panasas01/chem/sb13343/wfu/
 Main file repository           : /tmp/sb13343/

 SHA1      : b4a5b34a9e711420743f49e6833241d17c61fb3c
 NAME      : 2099.9.b4a5b34
 ARCHNAME  : linux/x86_64_openmp
 FC        : /cm/shared/languages/GCC-6.1/bin/gfortran
 BLASLIB   : -lblas
 id        : simonbennie

 Nodes     nprocs
 node32-002    1

 Using customized tuning parameters: mindgm=1; mindgv=20; mindgc=4; mindgr=1; noblas=0; minvec=7
 default implementation of scratch files=df  

 memory,500,m
 geomtyp=xyz
 nosym
 noorient
 geometry={
 C          0.00000        0.00000        0.00000
 C          0.00000        0.00000        1.53307
 O          1.40344        0.00000        1.86307
 C          1.76314        0.00000        3.22887
 H         -1.02289        0.00000       -0.39176
 H          0.51995       -0.88625       -0.37815
 H          0.51995        0.88625       -0.37815
 H          2.85677        0.00000        3.25413
 H          1.40708       -0.89217        3.76475
 H          1.40708        0.89217        3.76475
 C         -0.69252       -1.26694        2.06222
 C         -0.69252        1.26694        2.06222
 H         -0.15366       -2.16088        1.72982
 H         -0.15366        2.16088        1.72982
 H         -1.72011       -1.32515        1.68649
 H         -1.72011        1.32515        1.68649
 H         -0.74365       -1.28188        3.15638
 H         -0.74365        1.28188        3.15638
 }
 basis={ default,sto-3g }
 {uks,MM06,direct;wf,50,1,0}
 {ibba,bonds=1}

 Variables initialized (895), CPU time= 0.00 sec
 Commands  initialized (725), CPU time= 0.01 sec, 591 directives.
 Default parameters read. Elapsed time= 0.13 sec

 Checking input...
 Passed
1


                                         ***  PROGRAM SYSTEM MOLPRO  ***
                                       Copyright, TTI GmbH Stuttgart, 2015
                                    Version 2099.9 linked May 26 2017 16:03:21


 **********************************************************************************************************************************
 LABEL *                                                                                 
  64 bit serial version                                                                  DATE: 09-Jun-17          TIME: 01:37:33  
 **********************************************************************************************************************************

 SHA1:             b4a5b34a9e711420743f49e6833241d17c61fb3c
 **********************************************************************************************************************************
 SETTING GEOMTYP        =    XYZ

 Variable memory set to  500000000 words,  buffer space 

 ZSYMEL=NOSYM

 SETTING BASIS          =    STO-3G


 Recomputing integrals since basis changed


 Using spherical harmonics

 Library entry C      S STO-3G               selected for orbital group  1
 Library entry C      P STO-3G               selected for orbital group  1
 Library entry O      S STO-3G               selected for orbital group  2
 Library entry O      P STO-3G               selected for orbital group  2
 Library entry H      S STO-3G               selected for orbital group  4


 PROGRAM * SEWARD (Integral evaluation for generally contracted gaussian basis sets)     Author: Roland Lindh, 1990

 Geometry written to block  1 of record 700


 Point group  C1  



 ATOMIC COORDINATES

 NR  ATOM    CHARGE       X              Y              Z

   1  C       6.00    0.000000000    0.000000000    0.000000000
   2  C       6.00    0.000000000    0.000000000    2.897082430
   3  O       8.00    2.652117232    0.000000000    3.520692051
   4  C       6.00    3.331851719    0.000000000    6.101679992
   5  H       1.00   -1.932981956    0.000000000   -0.740319107
   6  H       1.00    0.982563098   -1.674769778   -0.714599934
   7  H       1.00    0.982563098    1.674769778   -0.714599934
   8  H       1.00    5.398512901    0.000000000    6.149414474
   9  H       1.00    2.658995835   -1.685956957    7.114346427
  10  H       1.00    2.658995835    1.685956957    7.114346427
  11  C       6.00   -1.308673136   -2.394169616    3.897031009
  12  C       6.00   -1.308673136    2.394169616    3.897031009
  13  H       1.00   -0.290375316   -4.083471388    3.268886045
  14  H       1.00   -0.290375316    4.083471388    3.268886045
  15  H       1.00   -3.250536804   -2.504170574    3.187004212
  16  H       1.00   -3.250536804    2.504170574    3.187004212
  17  H       1.00   -1.405294833   -2.422402125    5.964693745
  18  H       1.00   -1.405294833    2.422402125    5.964693745

 Bond lengths in Bohr (Angstrom)

 1-2  2.897082430  1-5  2.069901355  1-6  2.069042560  1-7  2.069042560  2-3  2.724447609
     ( 1.533070000)     ( 1.095344626)     ( 1.094890171)     ( 1.094890171)     ( 1.441715587)

  2-11  2.905954351   2-12  2.905954351   3- 4  2.668995640   4- 8  2.067212379   4- 9  2.078624355
       ( 1.537764818)       ( 1.537764818)       ( 1.412371669)       ( 1.093921681)       ( 1.099960639)

  4-10  2.078624355  11-13  2.070081404  11-15  2.070524757  11-17  2.070111596  12-14  2.070081404
       ( 1.099960639)       ( 1.095439904)       ( 1.095674516)       ( 1.095455880)       ( 1.095439904)

 12-16  2.070524757  12-18  2.070111596
       ( 1.095674516)       ( 1.095455880)

 Bond angles

  1- 2- 3  103.23196371   1- 2-11  110.12706952   1- 2-12  110.12706952   2- 1- 5  110.95650426

  2- 1- 6  110.20481748   2- 1- 7  110.20481748   2- 3- 4  117.98647004   2-11-13  110.26679927

  2-11-15  110.37287188   2-11-17  112.08316935   2-12-14  110.26679927   2-12-16  110.37287188

  2-12-18  112.08316935   3- 2-11  111.07703285   3- 2-12  111.07703285   3- 4- 8  106.07765410

  3- 4- 9  112.87219182   3- 4-10  112.87219182   5- 1- 6  108.65976572   5- 1- 7  108.65976572

  6- 1- 7  108.08288210   8- 4- 9  108.20190897   8- 4-10  108.20190897   9- 4-10  108.40564999

 11- 2-12  110.95103964  13-11-15  108.29648994  13-11-17  108.35544687  14-12-16  108.29648994

 14-12-18  108.35544687  15-11-17  107.33851825  16-12-18  107.33851825

 NUCLEAR CHARGE:                   50
 NUMBER OF PRIMITIVE AOS:         126
 NUMBER OF SYMMETRY AOS:          126
 NUMBER OF CONTRACTIONS:           42   (  42A   )
 NUMBER OF CORE ORBITALS:           6   (   6A   )
 NUMBER OF VALENCE ORBITALS:       36   (  36A   )


 NUCLEAR REPULSION ENERGY  270.15500869


 Eigenvalues of metric

         1 0.207E+00 0.226E+00 0.228E+00 0.234E+00 0.307E+00 0.355E+00 0.359E+00 0.362E+00


 Contracted 2-electron integrals neglected if value below      1.0D-11
 AO integral compression algorithm  1   Integral accuracy      1.0D-11

     2.884 MB (compressed) written to integral file ( 84.3%)


 NUMBER OF SORTED TWO-ELECTRON INTEGRALS:     408156.     BUFFER LENGTH:  32768
 NUMBER OF SEGMENTS:   1  SEGMENT LENGTH:     408156      RECORD LENGTH: 524288

 Memory used in sort:       0.97 MW

 SORT1 READ      453477. AND WROTE      382834. INTEGRALS IN      2 RECORDS. CPU TIME:     0.01 SEC, REAL TIME:     0.04 SEC
 SORT2 READ      382834. AND WROTE      408156. INTEGRALS IN     11 RECORDS. CPU TIME:     0.03 SEC, REAL TIME:     0.06 SEC

 FILE SIZES:   FILE 1:    33.2 MBYTE,  FILE 4:     8.4 MBYTE,   TOTAL:     41.6 MBYTE

 OPERATOR DM      FOR CENTER  0  COORDINATES:    0.000000    0.000000    0.000000


 **********************************************************************************************************************************
 DATASETS  * FILE   NREC   LENGTH (MB)   RECORD NAMES
              1      19       31.98       500      610      700      900      950      970     1000      129      960     1100   
                                          VAR    BASINP    GEOM    SYMINP    ZMAT    AOBASIS   BASIS     P2S    ABASIS      S 
                                         1400     1410     1200     1210     1080     1600     1650     1300     1700   
                                           T        V       H0       H01     AOSYM     SMH    MOLCAS    ERIS     OPER   

 PROGRAMS   *        TOTAL       INT
 CPU TIMES  *         0.88      0.73
 REAL TIME  *         2.60 SEC
 DISK USED  *        42.19 MB      
 **********************************************************************************************************************************

 Density functional group MM06=M06X+M06C
 Functional: M06X(Automatically generated (new) M06X)                          Gradient terms: 2
 Functional: M06C(Automatically generated (new) M06C)                          Gradient terms: 2
 Use grid at  1800.2


 Exact exchange will be calculated, factor:  0.2700

 Functional: M06X                      Factor:  0.7300
 Functional: M06C                      Factor:  1.0000

 Generated new metagrid on record  1800.2 with target accuracy 1.0D-06 and 66012 points in CPU time    2.0
 Computed new grid on record 1800.1 in CPU time    2.3
   70110 words reserved for DFT integration

 PROGRAM * UKS-SCF (Unrestricted Kohn-Sham)     Authors: W. Meyer, H.-J. Werner, P.J. Knowles, 1993

 NUMBER OF ELECTRONS:      25+   25-    SPACE SYMMETRY=1    SPIN SYMMETRY: Singlet 
 CONVERGENCE THRESHOLDS:    1.00E-05 (Density)    1.00E-06 (Energy)
 MAX. NUMBER OF ITERATIONS:       60
 INTERPOLATION TYPE:            DIIS
 INTERPOLATION STEPS:              2 (START)      1 (STEP)
 LEVEL SHIFTS:                 -0.20 (ALPHA)  -0.20 (BETA) 



 Use fine grid record 1800.2 for energy threshold  1.0D-06
 Orbital guess generated from atomic densities. Full valence occupancy:   25

 Molecular orbital dump at record        2200.2

 Initial alpha occupation  25
 Initial beta  occupation  25

 ITERATION    DDIFF          GRAD             ENERGY        2-EL.EN.            DIPOLE MOMENTS         DIIS
    1      0.000D+00      0.000D+00      -261.54823219    798.576069   -0.79112    0.00000    0.71462    0
    2      0.461D-01      0.163D-01      -261.87477935    779.188933   -0.22840    0.00000    0.07793    1
    3      0.522D-02      0.229D-02      -261.88022466    780.892637   -0.28169    0.00000    0.16983    2
    4      0.105D-02      0.371D-03      -261.88047215    780.852411   -0.28982    0.00000    0.17892    3
    5      0.404D-03      0.115D-03      -261.88050093    780.845048   -0.28848    0.00000    0.18082    4
    6      0.150D-03      0.293D-04      -261.88050355    780.844376   -0.28682    0.00000    0.18079    5
    7      0.346D-04      0.873D-05      -261.88050369    780.844622   -0.28719    0.00000    0.18114    5
    8      0.113D-04      0.371D-05      -261.88050371    780.844120   -0.28692    0.00000    0.18099    6
    9      0.290D-05      0.611D-06      -261.88050371    780.844304   -0.28694    0.00000    0.18100    6
   10      0.606D-06      0.169D-06      -261.88050371    780.844215   -0.28693    0.00000    0.18099    6

 Final alpha occupancy:  25
 Final beta  occupancy:  25

 !UKS STATE 1.1 Energy               -261.880503707304
 Nuclear energy                       270.15500869
 One-electron energy                 -900.33909640
 Two-electron energy                  390.42210770
 Density functional                   -22.11852369     M06X=-27.49970886 M06C= -2.04373623
 Virial quotient                       -0.99077154
 !UKS STATE 1.1 Dipole moment          -0.28693232     0.00000000     0.18099223
 Dipole moment /Debye                  -0.72926145     0.00000000     0.46000624

 Orbital energies for positive spin:

         1.1          2.1          3.1          4.1          5.1          6.1          7.1          8.1          9.1         10.1
    -18.433287    -9.726269    -9.711339    -9.674645    -9.672912    -9.672779    -0.867392    -0.671432    -0.576103    -0.573091

        11.1         12.1         13.1         14.1         15.1         16.1         17.1         18.1         19.1         20.1
     -0.544713    -0.417792    -0.361852    -0.339260    -0.335947    -0.316331    -0.294663    -0.277829    -0.268246    -0.252886

        21.1         22.1         23.1         24.1         25.1         26.1         27.1
     -0.248439    -0.217903    -0.211612    -0.089741    -0.023275     0.388642     0.468177

 Orbital energies for negative spin:

         1.1          2.1          3.1          4.1          5.1          6.1          7.1          8.1          9.1         10.1
    -18.433287    -9.726269    -9.711339    -9.674645    -9.672912    -9.672779    -0.867392    -0.671432    -0.576103    -0.573091

        11.1         12.1         13.1         14.1         15.1         16.1         17.1         18.1         19.1         20.1
     -0.544713    -0.417792    -0.361852    -0.339260    -0.335947    -0.316331    -0.294663    -0.277829    -0.268246    -0.252886

        21.1         22.1         23.1         24.1         25.1         26.1         27.1
     -0.248439    -0.217903    -0.211612    -0.089741    -0.023275     0.388642     0.468177

 HOMO     25.1    -0.023275 =      -0.6333eV
 LUMO     26.1     0.388642 =      10.5755eV
 LUMO-HOMO         0.411917 =      11.2088eV

 EXPECTATION VALUE OF S**2:            -0.00000000

 Natural orbitals saved to record    2200.2 (Orbital set 3)

 Orbital spaces for UNO-CAS (Min. occupation: 0.020  Max. occupation: 1.980):

 Closed:       25
 Active:        0


 **********************************************************************************************************************************
 DATASETS  * FILE   NREC   LENGTH (MB)   RECORD NAMES
              1      20       34.09       500      610      700      900      950      970     1000      129      960     1100   
                                          VAR    BASINP    GEOM    SYMINP    ZMAT    AOBASIS   BASIS     P2S    ABASIS      S 
                                         1400     1410     1200     1210     1080     1600     1650     1300     1700     1800   
                                           T        V       H0       H01     AOSYM     SMH    MOLCAS    ERIS     OPER     GRID   

              2       5        3.13       700     1000      520     1800     2200   
                                         GEOM     BASIS   MCVARS    GRID      UKS  

 PROGRAMS   *        TOTAL       UKS       INT
 CPU TIMES  *        29.21     28.33      0.73
 REAL TIME  *        45.24 SEC
 DISK USED  *        42.19 MB      
 **********************************************************************************************************************************


 PROGRAM * Intrinsic Basis Bonding Analysis (IBBA)          Author: G. Knizia

 Molecular orbitals read from record     2200.2  Type=UKS/ALPHA (state 1.1)
 Fock matrix read from record            2200.2  Type=UKS/TOTAL (state 1.1)
 Orbital energies read from record       2200.2  Type=UKS/ALPHA (state 1.1)
 Density matrix read from record         2200.2  Type=UKS/CHARGE (state 1.1)

 Number of core orbitals:           6 (   6 )
 Number of closed-shell orbitals:  19 (  19 )

 Basis set MINAO-AUTO-PP generated.      Number of basis functions:   42 

 Polarized AO type:                A = (O Ot + (1-O)(1-Ot)) P12
 Orthogonalization method:         Symmetric (Loewdin)
 Localization functional:          L = sum[A,i] <i|n_A|i>^4 -> max

 Localization group 1:  25 orbitals, occupancy  2.000
 Iterative localization: IB/PM,    7 iter; Final gradient 0.55E-08

 Bond order analysis:       [THRPRINT= 0.020]

   CEN ATOM   CEN ATOM     WIBERG.BO      RENORM.BO
     1   C  -   2   C       0.987991       0.987142
     1   C  -   5   H       0.969676       0.989584
     1   C  -   6   H       0.966874       0.987109
     1   C  -   7   H       0.966874       0.987109

     2   C  -   1   C       0.987991       0.987142
     2   C  -   3   O       0.987607       0.965912
     2   C  -  12   C       0.983596       0.960711
     2   C  -  11   C       0.983596       0.960711

     3   O  -   4   C       1.032780       1.018321
     3   O  -   2   C       0.987607       0.965912
     3   O  -   9   H       0.032646       0.019026
     3   O  -  10   H       0.032646       0.019026
     3   O  -  11   C       0.026888       0.014217
     3   O  -  12   C       0.026888       0.014217

     4   C  -   3   O       1.032780       1.018321
     4   C  -   8   H       0.957153       0.972498
     4   C  -   9   H       0.953470       0.940572
     4   C  -  10   H       0.953470       0.940572

     5   H  -   1   C       0.969676       0.989584

     6   H  -   1   C       0.966874       0.987109

     7   H  -   1   C       0.966874       0.987109

     8   H  -   4   C       0.957153       0.972498

     9   H  -   4   C       0.953470       0.940572
     9   H  -   3   O       0.032646       0.019026

    10   H  -   4   C       0.953470       0.940572
    10   H  -   3   O       0.032646       0.019026

    11   C  -   2   C       0.983596       0.960711
    11   C  -  17   H       0.968160       0.985956
    11   C  -  13   H       0.967294       0.986888
    11   C  -  15   H       0.967266       0.989382
    11   C  -   3   O       0.026888       0.014217

    12   C  -   2   C       0.983596       0.960711
    12   C  -  18   H       0.968160       0.985956
    12   C  -  14   H       0.967294       0.986888
    12   C  -  16   H       0.967266       0.989382
    12   C  -   3   O       0.026888       0.014217

    13   H  -  11   C       0.967294       0.986888

    14   H  -  12   C       0.967294       0.986888

    15   H  -  11   C       0.967266       0.989382

    16   H  -  12   C       0.967266       0.989382

    17   H  -  11   C       0.968160       0.985956

    18   H  -  12   C       0.968160       0.985956


 Valency analysis:

   CEN ATOM   TOT.VALENCE
     1   C       3.942049
     2   C       3.974086
     3   O       2.197696
     4   C       3.918551
     5   H       0.987026
     6   H       0.985752
     7   H       0.985752
     8   H       0.985015
     9   H       0.991312
    10   H       0.991312
    11   C       3.942658
    12   C       3.942658
    13   H       0.986362
    14   H       0.986362
    15   H       0.986244
    16   H       0.986244
    17   H       0.987622
    18   H       0.987622

 Total charge composition:

   CEN ATOM         s          p       ELECTRONS ->P.CHARGE
     1   C       2.97223    3.37079      6.34302   -0.34302
     2   C       2.93046    2.95843      5.88890    0.11110
     3   O       3.63708    4.53676      8.17384   -0.17384
     4   C       2.97999    3.25222      6.23221   -0.23221
     5   H       0.88610                 0.88610    0.11390
     6   H       0.88063                 0.88063    0.11937
     7   H       0.88063                 0.88063    0.11937
     8   H       0.87759                 0.87759    0.12241
     9   H       0.90679                 0.90679    0.09321
    10   H       0.90679                 0.90679    0.09321
    11   C       2.97272    3.38436      6.35708   -0.35708
    12   C       2.97272    3.38436      6.35708   -0.35708
    13   H       0.88322                 0.88322    0.11678
    14   H       0.88322                 0.88322    0.11678
    15   H       0.88271                 0.88271    0.11729
    16   H       0.88271                 0.88271    0.11729
    17   H       0.88874                 0.88874    0.11126
    18   H       0.88874                 0.88874    0.11126

 Total charge composition, AO contributions:

   CEN ATOM SHL      SPHERICAL COMPONENTS
     1   C  1s       1.99321
     1   C  2s       0.97902
     1   C  2p       1.15667    1.16350    1.05061

     2   C  1s       1.99445
     2   C  2s       0.93601
     2   C  2p       0.88497    1.03626    1.03720

     3   O  1s       1.99774
     3   O  2s       1.63934
     3   O  2p       1.30483    1.90525    1.32668

     4   C  1s       1.99367
     4   C  2s       0.98632
     4   C  2p       1.15858    1.16631    0.92732

     5   H  1s       0.88610

     6   H  1s       0.88063

     7   H  1s       0.88063

     8   H  1s       0.87759

     9   H  1s       0.90679

    10   H  1s       0.90679

    11   C  1s       1.99327
    11   C  2s       0.97945
    11   C  2p       1.14195    1.09650    1.14590

    12   C  1s       1.99327
    12   C  2s       0.97945
    12   C  2p       1.14195    1.09650    1.14590

    13   H  1s       0.88322

    14   H  1s       0.88322

    15   H  1s       0.88271

    16   H  1s       0.88271

    17   H  1s       0.88874

    18   H  1s       0.88874

 Summary of localized orbital composition:   [THRPRINT= 0.020]

   ORB  GRP  ORB.ENERGY      CENTERS/CHARGES
     1   1   -18.282648      O  3   2.000
     2   1    -9.636779      C  2   2.000
     3   1    -9.609023      C  4   2.000
     4   1    -9.567635      C  1   2.000
     5   1    -9.566516      C 12   2.000
     6   1    -9.566516      C 11   2.000
     7   1    -0.575555      O  3   1.143   C  4   0.848
     8   1    -0.541092      O  3   1.149   C  2   0.827   (other: 0.024)
     9   1    -0.441944      C  2   0.994   C  1   0.983   (other: 0.023)
    10   1    -0.440907      C 11   0.997   C  2   0.989
    11   1    -0.440907      C 12   0.997   C  2   0.989
    12   1    -0.400780      C  4   1.111   H 10   0.887
    13   1    -0.400780      C  4   1.111   H  9   0.887
    14   1    -0.400504      C  4   1.123   H  8   0.867
    15   1    -0.388539      C 12   1.109   H 18   0.882
    16   1    -0.388539      C 11   1.109   H 17   0.882
    17   1    -0.388273      C  1   1.111   H  5   0.879
    18   1    -0.387715      C 11   1.114   H 15   0.875
    19   1    -0.387715      C 12   1.114   H 16   0.875
    20   1    -0.384394      C 12   1.115   H 14   0.876
    21   1    -0.384394      C 11   1.115   H 13   0.876
    22   1    -0.381954      C  1   1.117   H  6   0.874
    23   1    -0.381954      C  1   1.117   H  7   0.874
    24   1    -0.374098      O  3   1.967   (other: 0.033)
    25   1    -0.060592      O  3   1.905   C  2   0.022   C  4   0.020   (other: 0.053)

 Localized orbitals saved to record      2200.2  (orbital set 4)


 **********************************************************************************************************************************
 DATASETS  * FILE   NREC   LENGTH (MB)   RECORD NAMES
              1      20       34.09       500      610      700      900      950      970     1000      129      960     1100   
                                          VAR    BASINP    GEOM    SYMINP    ZMAT    AOBASIS   BASIS     P2S    ABASIS      S 
                                         1400     1410     1200     1210     1080     1600     1650     1300     1700     1800   
                                           T        V       H0       H01     AOSYM     SMH    MOLCAS    ERIS     OPER     GRID   

              2       5        3.15       700     1000      520     1800     2200   
                                         GEOM     BASIS   MCVARS    GRID      UKS  

 PROGRAMS   *        TOTAL      IBBA       UKS       INT
 CPU TIMES  *        29.25      0.04     28.33      0.73
 REAL TIME  *        45.44 SEC
 DISK USED  *        42.19 MB      
 **********************************************************************************************************************************
 Molecular orbitals read from record     2200.2  Type=UKS/LOCAL(IBO)  
 Occupation numbers read from record     2200.2  Type=UKS/LOCAL(IBO)  
 Orbital energies read from record       2200.2  Type=UKS/LOCAL(IBO)  
 Redundancy group numbers read from rec  2200.2  Type=UKS/BETA (state 1.1)

 IBBA/STO-3G energy=      0.000000000000

        UKS-SCF 
   -261.88050371
 **********************************************************************************************************************************
 Molpro calculation terminated
