
 Primary working directories    : /tmp/sb13343
 Secondary working directories  : /tmp/sb13343
 Wavefunction directory         : /panfs/panasas01/chem/sb13343/wfu/
 Main file repository           : /tmp/sb13343/

 SHA1      : b4a5b34a9e711420743f49e6833241d17c61fb3c
 NAME      : 2099.9.b4a5b34
 ARCHNAME  : linux/x86_64_openmp
 FC        : /cm/shared/languages/GCC-6.1/bin/gfortran
 BLASLIB   : -lblas
 id        : simonbennie

 Nodes     nprocs
 node32-019    1

 Using customized tuning parameters: mindgm=1; mindgv=20; mindgc=4; mindgr=1; noblas=0; minvec=7
 default implementation of scratch files=df  

 memory,500,m
 geomtyp=xyz
 nosym
 noorient
 geometry={
 C          0.00000        0.00000        0.00000
 H          0.00000        0.00000        1.10056
 C          1.46209        0.00000       -0.46855
 C         -0.73105       -1.26621       -0.46855
 C         -0.73105        1.26621       -0.46855
 H          1.52118        0.00000       -1.56505
 H         -0.76059       -1.31738       -1.56505
 H         -0.76059        1.31738       -1.56505
 H          1.99755        0.88622       -0.10723
 H          1.99755       -0.88622       -0.10723
 H         -0.23129       -2.17304       -0.10723
 H         -1.76626       -1.28682       -0.10723
 H         -1.76626        1.28682       -0.10723
 H         -0.23129        2.17304       -0.10723
 }
 basis={ default,svp }
 {uks,BH-LYP,direct;wf,34,1,0}
 {ibba,bonds=1}

 Variables initialized (895), CPU time= 0.01 sec
 Commands  initialized (725), CPU time= 0.01 sec, 591 directives.
 Default parameters read. Elapsed time= 0.08 sec

 Checking input...
 Passed
1


                                         ***  PROGRAM SYSTEM MOLPRO  ***
                                       Copyright, TTI GmbH Stuttgart, 2015
                                    Version 2099.9 linked May 26 2017 16:03:21


 **********************************************************************************************************************************
 LABEL *                                                                                 
  64 bit serial version                                                                  DATE: 09-Jun-17          TIME: 00:07:57  
 **********************************************************************************************************************************

 SHA1:             b4a5b34a9e711420743f49e6833241d17c61fb3c
 **********************************************************************************************************************************
 SETTING GEOMTYP        =    XYZ

 Variable memory set to  500000000 words,  buffer space 

 ZSYMEL=NOSYM

 SETTING BASIS          =    SVP


 Recomputing integrals since basis changed


 Using spherical harmonics

 Library entry C      S def2-SVP             selected for orbital group  1
 Library entry C      P def2-SVP             selected for orbital group  1
 Library entry C      D def2-SVP             selected for orbital group  1
 Library entry H      S def2-SVP             selected for orbital group  2
 Library entry H      P def2-SVP             selected for orbital group  2


 PROGRAM * SEWARD (Integral evaluation for generally contracted gaussian basis sets)     Author: Roland Lindh, 1990

 Geometry written to block  1 of record 700


 Point group  C1  



 ATOMIC COORDINATES

 NR  ATOM    CHARGE       X              Y              Z

   1  C       6.00    0.000000000    0.000000000    0.000000000
   2  H       1.00    0.000000000    0.000000000    2.079756984
   3  C       6.00    2.762949669    0.000000000   -0.885431176
   4  C       6.00   -1.381484283   -2.392790116   -0.885431176
   5  C       6.00   -1.381484283    2.392790116   -0.885431176
   6  H       1.00    2.874613586    0.000000000   -2.957515871
   7  H       1.00   -1.437306793   -2.489487402   -2.957515871
   8  H       1.00   -1.437306793    2.489487402   -2.957515871
   9  H       1.00    3.774822420    1.674713086   -0.202635332
  10  H       1.00    3.774822420   -1.674713086   -0.202635332
  11  H       1.00   -0.437074755   -4.106450458   -0.202635332
  12  H       1.00   -3.337747665   -2.431737372   -0.202635332
  13  H       1.00   -3.337747665    2.431737372   -0.202635332
  14  H       1.00   -0.437074755    4.106450458   -0.202635332

 Bond lengths in Bohr (Angstrom)

 1-2  2.079756984  1-3  2.901358172  1-4  2.901367218  1-5  2.901367218  3-6  2.075091279
     ( 1.100560000)     ( 1.535332625)     ( 1.535337412)     ( 1.535337412)     ( 1.098091015)

  3- 9  2.072380406   3-10  2.072380406   4- 7  2.075090722   4-11  2.072378172   4-12  2.072364222
       ( 1.096656483)       ( 1.096656483)       ( 1.098090721)       ( 1.096655301)       ( 1.096647919)

  5- 8  2.075090722   5-13  2.072364222   5-14  2.072378172
       ( 1.098090721)       ( 1.096647919)       ( 1.096655301)

 Bond angles

  1- 3- 6  110.85354902   1- 3- 9  111.37220114   1- 3-10  111.37220114   1- 4- 7  110.85320625

  1- 4-11  111.37204414   1- 4-12  111.37216555   1- 5- 8  110.85320625   1- 5-13  111.37216555

  1- 5-14  111.37204414   2- 1- 3  107.76888332   2- 1- 4  107.76882608   2- 1- 5  107.76882608

  3-1-4  111.11870751   3-1-5  111.11870751   4-1-5  111.11845005   6-3-9  107.62119374

  6- 3-10  107.62119374   7- 4-11  107.62125572   7- 4-12  107.62162102   8- 5-13  107.62162102

  8- 5-14  107.62125572   9- 3-10  107.82352924  11- 4-12  107.82360822  13- 5-14  107.82360822

 NUCLEAR CHARGE:                   34
 NUMBER OF PRIMITIVE AOS:         170
 NUMBER OF SYMMETRY AOS:          166
 NUMBER OF CONTRACTIONS:          106   ( 106A   )
 NUMBER OF CORE ORBITALS:           4   (   4A   )
 NUMBER OF VALENCE ORBITALS:       26   (  26A   )


 NUCLEAR REPULSION ENERGY  134.07051350


 Eigenvalues of metric

         1 0.225E-02 0.614E-02 0.614E-02 0.233E-01 0.256E-01 0.268E-01 0.268E-01 0.277E-01


 Contracted 2-electron integrals neglected if value below      1.0D-11
 AO integral compression algorithm  1   Integral accuracy      1.0D-11

     64.750 MB (compressed) written to integral file ( 46.7%)


 NUMBER OF SORTED TWO-ELECTRON INTEGRALS:   16082956.     BUFFER LENGTH:  32768
 NUMBER OF SEGMENTS:   2  SEGMENT LENGTH:   15997996      RECORD LENGTH: 524288

 Memory used in sort:      16.56 MW

 SORT1 READ    17384690. AND WROTE    14795173. INTEGRALS IN     44 RECORDS. CPU TIME:     0.22 SEC, REAL TIME:     0.47 SEC
 SORT2 READ    14795173. AND WROTE    16082956. INTEGRALS IN    247 RECORDS. CPU TIME:     0.43 SEC, REAL TIME:     0.53 SEC

 FILE SIZES:   FILE 1:    95.4 MBYTE,  FILE 4:   184.6 MBYTE,   TOTAL:    279.9 MBYTE

 OPERATOR DM      FOR CENTER  0  COORDINATES:    0.000000    0.000000    0.000000


 **********************************************************************************************************************************
 DATASETS  * FILE   NREC   LENGTH (MB)   RECORD NAMES
              1      19       87.57       500      610      700      900      950      970     1000      129      960     1100   
                                          VAR    BASINP    GEOM    SYMINP    ZMAT    AOBASIS   BASIS     P2S    ABASIS      S 
                                         1400     1410     1200     1210     1080     1600     1650     1300     1700   
                                           T        V       H0       H01     AOSYM     SMH    MOLCAS    ERIS     OPER   

 PROGRAMS   *        TOTAL       INT
 CPU TIMES  *         2.82      2.67
 REAL TIME  *         3.63 SEC
 DISK USED  *       280.45 MB      
 **********************************************************************************************************************************

 Density functional group BH-LYP=B88+LYP
 Functional: B88(Automatically generated (new) B88)                            Gradient terms: 1
 Functional: LYP(Automatically generated (new) LYP)                            Gradient terms: 1
 Use grid at  1800.2


 Exact exchange will be calculated, factor:  0.5000

 Functional: B88                       Factor:  0.5000
 Functional: LYP                       Factor:  1.0000

 Generated new metagrid on record  1800.2 with target accuracy 1.0D-06 and 45620 points in CPU time    1.1
 Computed new grid on record 1800.1 in CPU time    1.3
   88342 words reserved for DFT integration

 PROGRAM * UKS-SCF (Unrestricted Kohn-Sham)     Authors: W. Meyer, H.-J. Werner, P.J. Knowles, 1993

 NUMBER OF ELECTRONS:      17+   17-    SPACE SYMMETRY=1    SPIN SYMMETRY: Singlet 
 CONVERGENCE THRESHOLDS:    1.00E-05 (Density)    1.00E-06 (Energy)
 MAX. NUMBER OF ITERATIONS:       60
 INTERPOLATION TYPE:            DIIS
 INTERPOLATION STEPS:              2 (START)      1 (STEP)
 LEVEL SHIFTS:                 -0.20 (ALPHA)  -0.20 (BETA) 



 Use fine grid record 1800.2 for energy threshold  1.0D-06
 Orbital guess generated from atomic densities. Full valence occupancy:   17

 Molecular orbital dump at record        2200.2

 Initial alpha occupation  17
 Initial beta  occupation  17

 ITERATION    DDIFF          GRAD             ENERGY        2-EL.EN.            DIPOLE MOMENTS         DIIS
    1      0.000D+00      0.000D+00      -158.12838434    402.673115   -0.00008   -0.00000   -0.00879    0
    2      0.721D-02      0.386D-02      -158.22282905    393.114996   -0.00012   -0.00000    0.00556    1
    3      0.181D-02      0.109D-02      -158.22929437    394.603754   -0.00013   -0.00000    0.03171    2
    4      0.115D-02      0.283D-03      -158.23043462    394.436522   -0.00014   -0.00000    0.03523    3
    5      0.423D-03      0.764D-04      -158.23052695    394.419245   -0.00015   -0.00000    0.03570    4
    6      0.155D-03      0.202D-04      -158.23053336    394.403844   -0.00015   -0.00000    0.03579    5
    7      0.337D-04      0.472D-05      -158.23053372    394.404751   -0.00015   -0.00000    0.03497    6
    8      0.828D-05      0.116D-05      -158.23053375    394.404643   -0.00015   -0.00000    0.03508    6
    9      0.268D-05      0.331D-06      -158.23053375    394.404679   -0.00015   -0.00000    0.03500    6

 Final alpha occupancy:  17
 Final beta  occupancy:  17

 !UKS STATE 1.1 Energy               -158.230533748633
 Nuclear energy                       134.07051350
 One-electron energy                 -476.32355420
 Two-electron energy                  197.20233966
 Density functional                   -13.17983271     B88=-24.22441601 LYP= -1.06762471
 Virial quotient                       -1.01273280
 !UKS STATE 1.1 Dipole moment          -0.00015276    -0.00000000     0.03500493
 Dipole moment /Debye                  -0.00038826    -0.00000000     0.08896783

 Orbital energies for positive spin:

         1.1          2.1          3.1          4.1          5.1          6.1          7.1          8.1          9.1         10.1
    -10.590841   -10.578303   -10.578297   -10.578272    -0.903444    -0.771751    -0.771750    -0.637591    -0.531353    -0.496561

        11.1         12.1         13.1         14.1         15.1         16.1         17.1         18.1         19.1
     -0.496555    -0.445490    -0.445488    -0.424581    -0.386442    -0.386440    -0.379460     0.088566     0.137964

 Orbital energies for negative spin:

         1.1          2.1          3.1          4.1          5.1          6.1          7.1          8.1          9.1         10.1
    -10.590841   -10.578303   -10.578297   -10.578272    -0.903444    -0.771751    -0.771750    -0.637591    -0.531353    -0.496561

        11.1         12.1         13.1         14.1         15.1         16.1         17.1         18.1         19.1
     -0.496555    -0.445490    -0.445488    -0.424581    -0.386442    -0.386440    -0.379460     0.088566     0.137964

 HOMO     17.1    -0.379460 =     -10.3256eV
 LUMO     18.1     0.088566 =       2.4100eV
 LUMO-HOMO         0.468026 =      12.7356eV

 EXPECTATION VALUE OF S**2:            -0.00000000

 Natural orbitals saved to record    2200.2 (Orbital set 3)

 Orbital spaces for UNO-CAS (Min. occupation: 0.020  Max. occupation: 1.980):

 Closed:       17
 Active:        0


 **********************************************************************************************************************************
 DATASETS  * FILE   NREC   LENGTH (MB)   RECORD NAMES
              1      20       89.03       500      610      700      900      950      970     1000      129      960     1100   
                                          VAR    BASINP    GEOM    SYMINP    ZMAT    AOBASIS   BASIS     P2S    ABASIS      S 
                                         1400     1410     1200     1210     1080     1600     1650     1300     1700     1800   
                                           T        V       H0       H01     AOSYM     SMH    MOLCAS    ERIS     OPER     GRID   

              2       5        3.45       700     1000      520     1800     2200   
                                         GEOM     BASIS   MCVARS    GRID      UKS  

 PROGRAMS   *        TOTAL       UKS       INT
 CPU TIMES  *        19.18     16.36      2.67
 REAL TIME  *        20.66 SEC
 DISK USED  *       280.45 MB      
 **********************************************************************************************************************************


 PROGRAM * Intrinsic Basis Bonding Analysis (IBBA)          Author: G. Knizia

 Molecular orbitals read from record     2200.2  Type=UKS/ALPHA (state 1.1)
 Fock matrix read from record            2200.2  Type=UKS/TOTAL (state 1.1)
 Orbital energies read from record       2200.2  Type=UKS/ALPHA (state 1.1)
 Density matrix read from record         2200.2  Type=UKS/CHARGE (state 1.1)

 Number of core orbitals:           4 (   4 )
 Number of closed-shell orbitals:  13 (  13 )

 Basis set MINAO-AUTO-PP generated.      Number of basis functions:   30 

 Polarized AO type:                A = (O Ot + (1-O)(1-Ot)) P12
 Orthogonalization method:         Symmetric (Loewdin)
 Localization functional:          L = sum[A,i] <i|n_A|i>^4 -> max

 Localization group 1:  17 orbitals, occupancy  2.000
 Iterative localization: IB/PM,    7 iter; Final gradient 0.51E-09

 Bond order analysis:       [THRPRINT= 0.020]

   CEN ATOM   CEN ATOM     WIBERG.BO      RENORM.BO
     1   C  -   3   C       1.012415       1.008995
     1   C  -   4   C       1.012409       1.008987
     1   C  -   5   C       1.012409       1.008987
     1   C  -   2   H       0.940187       0.959613

     2   H  -   1   C       0.940187       0.959613

     3   C  -   1   C       1.012415       1.008995
     3   C  -   9   H       0.968623       0.985477
     3   C  -  10   H       0.968623       0.985477
     3   C  -   6   H       0.967161       0.980867

     4   C  -   1   C       1.012409       1.008987
     4   C  -  11   H       0.968626       0.985479
     4   C  -  12   H       0.968618       0.985479
     4   C  -   7   H       0.967156       0.980865

     5   C  -   1   C       1.012409       1.008987
     5   C  -  14   H       0.968626       0.985479
     5   C  -  13   H       0.968618       0.985479
     5   C  -   8   H       0.967156       0.980865

     6   H  -   3   C       0.967161       0.980867

     7   H  -   4   C       0.967156       0.980865

     8   H  -   5   C       0.967156       0.980865

     9   H  -   3   C       0.968623       0.985477

    10   H  -   3   C       0.968623       0.985477

    11   H  -   4   C       0.968626       0.985479

    12   H  -   4   C       0.968618       0.985479

    13   H  -   5   C       0.968618       0.985479

    14   H  -   5   C       0.968626       0.985479


 Valency analysis:

   CEN ATOM   TOT.VALENCE
     1   C       3.983320
     2   H       0.987723
     3   C       3.948655
     4   C       3.948645
     5   C       3.948645
     6   H       0.986257
     7   H       0.986253
     8   H       0.986253
     9   H       0.985247
    10   H       0.985247
    11   H       0.985250
    12   H       0.985240
    13   H       0.985240
    14   H       0.985250

 Total charge composition:

   CEN ATOM         s          p       ELECTRONS ->P.CHARGE
     1   C       2.95112    3.11498      6.06610   -0.06610
     2   H       0.88920                 0.88920    0.11080
     3   C       3.01894    3.35612      6.37506   -0.37506
     4   C       3.01894    3.35615      6.37509   -0.37509
     5   C       3.01894    3.35615      6.37509   -0.37509
     6   H       0.88277                 0.88277    0.11723
     7   H       0.88275                 0.88275    0.11725
     8   H       0.88275                 0.88275    0.11725
     9   H       0.87854                 0.87854    0.12146
    10   H       0.87854                 0.87854    0.12146
    11   H       0.87855                 0.87855    0.12145
    12   H       0.87851                 0.87851    0.12149
    13   H       0.87851                 0.87851    0.12149
    14   H       0.87855                 0.87855    0.12145

 Total charge composition, AO contributions:

   CEN ATOM SHL      SPHERICAL COMPONENTS
     1   C  1s       1.99132
     1   C  2s       0.95980
     1   C  2p       1.00569    1.00569    1.10360

     2   H  1s       0.88920

     3   C  1s       1.99073
     3   C  2s       1.02821
     3   C  2p       1.06513    1.15145    1.13954

     4   C  1s       1.99073
     4   C  2s       1.02821
     4   C  2p       1.12989    1.08670    1.13956

     5   C  1s       1.99073
     5   C  2s       1.02821
     5   C  2p       1.12989    1.08670    1.13956

     6   H  1s       0.88277

     7   H  1s       0.88275

     8   H  1s       0.88275

     9   H  1s       0.87854

    10   H  1s       0.87854

    11   H  1s       0.87855

    12   H  1s       0.87851

    13   H  1s       0.87851

    14   H  1s       0.87855

 Summary of localized orbital composition:   [THRPRINT= 0.020]

   ORB  GRP  ORB.ENERGY      CENTERS/CHARGES
     1   1   -10.483479      C  1   2.000
     2   1   -10.460111      C  3   2.000
     3   1   -10.460102      C  4   2.000
     4   1   -10.460102      C  5   2.000
     5   1    -0.630225      C  3   1.007   C  1   0.978
     6   1    -0.630220      C  4   1.007   C  1   0.978
     7   1    -0.630220      C  5   1.007   C  1   0.978
     8   1    -0.565655      C  3   1.120   H 10   0.872
     9   1    -0.565655      C  3   1.120   H  9   0.872
    10   1    -0.565653      C  5   1.120   H 13   0.872
    11   1    -0.565653      C  4   1.120   H 12   0.872
    12   1    -0.565652      C  4   1.120   H 11   0.872
    13   1    -0.565652      C  5   1.120   H 14   0.872
    14   1    -0.564865      C  3   1.116   H  6   0.876
    15   1    -0.564859      C  5   1.116   H  8   0.876
    16   1    -0.564859      C  4   1.116   H  7   0.876
    17   1    -0.559662      C  1   1.096   H  2   0.877   (other: 0.027)

 Localized orbitals saved to record      2200.2  (orbital set 4)


 **********************************************************************************************************************************
 DATASETS  * FILE   NREC   LENGTH (MB)   RECORD NAMES
              1      20       89.03       500      610      700      900      950      970     1000      129      960     1100   
                                          VAR    BASINP    GEOM    SYMINP    ZMAT    AOBASIS   BASIS     P2S    ABASIS      S 
                                         1400     1410     1200     1210     1080     1600     1650     1300     1700     1800   
                                           T        V       H0       H01     AOSYM     SMH    MOLCAS    ERIS     OPER     GRID   

              2       5        3.54       700     1000      520     1800     2200   
                                         GEOM     BASIS   MCVARS    GRID      UKS  

 PROGRAMS   *        TOTAL      IBBA       UKS       INT
 CPU TIMES  *        19.22      0.03     16.36      2.67
 REAL TIME  *        20.78 SEC
 DISK USED  *       280.45 MB      
 **********************************************************************************************************************************
 Molecular orbitals read from record     2200.2  Type=UKS/LOCAL(IBO)  
 Occupation numbers read from record     2200.2  Type=UKS/LOCAL(IBO)  
 Orbital energies read from record       2200.2  Type=UKS/LOCAL(IBO)  
 Redundancy group numbers read from rec  2200.2  Type=UKS/BETA (state 1.1)

 IBBA/SVP energy=      0.000000000000

        UKS-SCF 
   -158.23053375
 **********************************************************************************************************************************
 Molpro calculation terminated
