
 Primary working directories    : /tmp/sb13343
 Secondary working directories  : /tmp/sb13343
 Wavefunction directory         : /panfs/panasas01/chem/sb13343/wfu/
 Main file repository           : /tmp/sb13343/

 SHA1      : b4a5b34a9e711420743f49e6833241d17c61fb3c
 NAME      : 2099.9.b4a5b34
 ARCHNAME  : linux/x86_64_openmp
 FC        : /cm/shared/languages/GCC-6.1/bin/gfortran
 BLASLIB   : -lblas
 id        : simonbennie

 Nodes     nprocs
 node33-019    1

 Using customized tuning parameters: mindgm=1; mindgv=20; mindgc=4; mindgr=1; noblas=0; minvec=7
 default implementation of scratch files=df  

 memory,500,m
 geomtyp=xyz
 nosym
 noorient
 geometry={
 C         -1.53233        0.02247        0.00000
 C         -0.00192        0.01421        0.00000
 O          0.37239        1.40356        0.00000
 H          1.34248        1.44036        0.00000
 H         -1.92991       -0.99819        0.00000
 H         -1.90797        0.54382       -0.88653
 H         -1.90797        0.54382        0.88653
 C          0.54303       -0.66466       -1.26580
 C          0.54303       -0.66466        1.26580
 H          0.17836       -0.14752       -2.15943
 H          0.17836       -0.14752        2.15943
 H          0.23752       -1.71600       -1.32280
 H          0.23752       -1.71600        1.32280
 H          1.64084       -0.63767       -1.28032
 H          1.64084       -0.63767        1.28032
 }
 basis={ default,svp }
 {uks,PBEREV,direct;wf,42,1,0}
 {ibba,bonds=1}

 Variables initialized (895), CPU time= 0.00 sec
 Commands  initialized (725), CPU time= 0.01 sec, 591 directives.
 Default parameters read. Elapsed time= 0.16 sec

 Checking input...
 Passed
1


                                         ***  PROGRAM SYSTEM MOLPRO  ***
                                       Copyright, TTI GmbH Stuttgart, 2015
                                    Version 2099.9 linked May 26 2017 16:03:21


 **********************************************************************************************************************************
 LABEL *                                                                                 
  64 bit serial version                                                                  DATE: 09-Jun-17          TIME: 03:39:16  
 **********************************************************************************************************************************

 SHA1:             b4a5b34a9e711420743f49e6833241d17c61fb3c
 **********************************************************************************************************************************
 SETTING GEOMTYP        =    XYZ

 Variable memory set to  500000000 words,  buffer space 

 ZSYMEL=NOSYM

 SETTING BASIS          =    SVP


 Recomputing integrals since basis changed


 Using spherical harmonics

 Library entry C      S def2-SVP             selected for orbital group  1
 Library entry C      P def2-SVP             selected for orbital group  1
 Library entry C      D def2-SVP             selected for orbital group  1
 Library entry O      S def2-SVP             selected for orbital group  2
 Library entry O      P def2-SVP             selected for orbital group  2
 Library entry O      D def2-SVP             selected for orbital group  2
 Library entry H      S def2-SVP             selected for orbital group  3
 Library entry H      P def2-SVP             selected for orbital group  3


 PROGRAM * SEWARD (Integral evaluation for generally contracted gaussian basis sets)     Author: Roland Lindh, 1990

 Geometry written to block  1 of record 700


 Point group  C1  



 ATOMIC COORDINATES

 NR  ATOM    CHARGE       X              Y              Z

   1  C       6.00   -2.895684032    0.042462146    0.000000000
   2  C       6.00   -0.003628274    0.026853008    0.000000000
   3  O       8.00    0.703715112    2.652343999    0.000000000
   4  H       1.00    2.536919528    2.721885921    0.000000000
   5  H       1.00   -3.647001345   -1.886305720    0.000000000
   6  H       1.00   -3.605540754    1.027670861   -1.675298901
   7  H       1.00   -3.605540754    1.027670861    1.675298901
   8  C       6.00    1.026177977   -1.256025366   -2.392015328
   9  C       6.00    1.026177977   -1.256025366    2.392015328
  10  H       1.00    0.337051552   -0.278772398   -4.080731285
  11  H       1.00    0.337051552   -0.278772398    4.080731285
  12  H       1.00    0.448847749   -3.242770030   -2.499729718
  13  H       1.00    0.448847749   -3.242770030    2.499729718
  14  H       1.00    3.100738214   -1.205021658   -2.419454152
  15  H       1.00    3.100738214   -1.205021658    2.419454152

 Bond lengths in Bohr (Angstrom)

 1-2  2.892097881  1-5  2.069933136  1-6  2.069096224  1-7  2.069096224  2-3  2.719106031
     ( 1.530432290)     ( 1.095361444)     ( 1.094918569)     ( 1.094918569)     ( 1.438888946)

  2- 8  2.903104402   2- 9  2.903104402   3- 4  1.834522965   8-10  2.069222119   8-12  2.071730422
       ( 1.536256691)       ( 1.536256691)       ( 0.970787746)       ( 1.094985190)       ( 1.096312526)

  8-14  2.075368508   9-11  2.069222119   9-13  2.071730422   9-15  2.075368508
       ( 1.098237719)       ( 1.094985190)       ( 1.096312526)       ( 1.098237719)

 Bond angles

  1-2-3  104.76902697   1-2-8  110.92255387   1-2-9  110.92255387   2-1-5  110.97328220

  2- 1- 6  110.22090701   2- 1- 7  110.22090701   2- 3- 4  107.25071562   2- 8-10  110.21836376

  2- 8-12  111.57747468   2- 8-14  110.77023896   2- 9-11  110.21836376   2- 9-13  111.57747468

  2- 9-15  110.77023896   3- 2- 8  109.53648747   3- 2- 9  109.53648747   5- 1- 6  108.61190457

  5- 1- 7  108.61190457   6- 1- 7  108.12870271   8- 2- 9  110.96453384  10- 8-12  108.52192632

 10- 8-14  108.08997829  11- 9-13  108.52192632  11- 9-15  108.08997829  12- 8-14  107.54424578

 13- 9-15  107.54424578

 NUCLEAR CHARGE:                   42
 NUMBER OF PRIMITIVE AOS:         195
 NUMBER OF SYMMETRY AOS:          190
 NUMBER OF CONTRACTIONS:          120   ( 120A   )
 NUMBER OF CORE ORBITALS:           5   (   5A   )
 NUMBER OF VALENCE ORBITALS:       30   (  30A   )


 NUCLEAR REPULSION ENERGY  198.77359127


 Eigenvalues of metric

         1 0.176E-02 0.546E-02 0.548E-02 0.123E-01 0.248E-01 0.256E-01 0.256E-01 0.275E-01


 Contracted 2-electron integrals neglected if value below      1.0D-11
 AO integral compression algorithm  1   Integral accuracy      1.0D-11

     101.974 MB (compressed) written to integral file ( 44.9%)


 NUMBER OF SORTED TWO-ELECTRON INTEGRALS:   26357430.     BUFFER LENGTH:  32768
 NUMBER OF SEGMENTS:   2  SEGMENT LENGTH:   15997996      RECORD LENGTH: 524288

 Memory used in sort:      16.56 MW

 SORT1 READ    28411733. AND WROTE    24096425. INTEGRALS IN     70 RECORDS. CPU TIME:     0.35 SEC, REAL TIME:     0.69 SEC
 SORT2 READ    24096425. AND WROTE    26357430. INTEGRALS IN    389 RECORDS. CPU TIME:     0.59 SEC, REAL TIME:     2.85 SEC

 FILE SIZES:   FILE 1:   132.7 MBYTE,  FILE 4:   293.6 MBYTE,   TOTAL:    426.4 MBYTE

 OPERATOR DM      FOR CENTER  0  COORDINATES:    0.000000    0.000000    0.000000


 **********************************************************************************************************************************
 DATASETS  * FILE   NREC   LENGTH (MB)   RECORD NAMES
              1      19      120.44       500      610      700      900      950      970     1000      129      960     1100   
                                          VAR    BASINP    GEOM    SYMINP    ZMAT    AOBASIS   BASIS     P2S    ABASIS      S 
                                         1400     1410     1200     1210     1080     1600     1650     1300     1700   
                                           T        V       H0       H01     AOSYM     SMH    MOLCAS    ERIS     OPER   

 PROGRAMS   *        TOTAL       INT
 CPU TIMES  *         4.01      3.86
 REAL TIME  *         8.95 SEC
 DISK USED  *       426.89 MB      
 **********************************************************************************************************************************

 Density functional group PBEREV=PBEXREV+PBEC
 Functional: PBEXREV(Automatically generated (new) PBEXREV)                    Gradient terms: 1
 Functional: PBEC(Automatically generated (new) PBEC)                          Gradient terms: 1
 Use grid at  1800.2

 Functional: PBEXREV                   Factor:  1.0000
 Functional: PBEC                      Factor:  1.0000

 Generated new metagrid on record  1800.2 with target accuracy 1.0D-06 and 53396 points in CPU time    1.6
 Computed new grid on record 1800.1 in CPU time    1.8
   99539 words reserved for DFT integration

 PROGRAM * UKS-SCF (Unrestricted Kohn-Sham)     Authors: W. Meyer, H.-J. Werner, P.J. Knowles, 1993

 NUMBER OF ELECTRONS:      21+   21-    SPACE SYMMETRY=1    SPIN SYMMETRY: Singlet 
 CONVERGENCE THRESHOLDS:    1.00E-05 (Density)    1.00E-06 (Energy)
 MAX. NUMBER OF ITERATIONS:       60
 INTERPOLATION TYPE:            DIIS
 INTERPOLATION STEPS:              2 (START)      1 (STEP)
 LEVEL SHIFTS:                 -0.20 (ALPHA)  -0.20 (BETA) 



 Use fine grid record 1800.2 for energy threshold  1.0D-06
 Orbital guess generated from atomic densities. Full valence occupancy:   21

 Molecular orbital dump at record        2200.2

 Initial alpha occupation  21
 Initial beta  occupation  21

 ITERATION    DDIFF          GRAD             ENERGY        2-EL.EN.            DIPOLE MOMENTS         DIIS
    1      0.000D+00      0.000D+00      -233.14935853    638.752474    0.69918   -0.77886    0.00000    0
    2      0.136D-01      0.593D-02      -233.36385704    615.265566    0.23669   -0.36364    0.00000    1
    3      0.456D-02      0.314D-02      -233.42066763    622.092191    0.38086   -0.49219    0.00000    2
    4      0.101D-02      0.410D-03      -233.42185751    621.834115    0.36356   -0.42590    0.00000    3
    5      0.679D-03      0.186D-03      -233.42221963    621.762679    0.36052   -0.42830    0.00000    4
    6      0.417D-03      0.458D-04      -233.42227027    621.745735    0.35893   -0.42009    0.00000    5
    7      0.795D-04      0.172D-04      -233.42227331    621.721655    0.35744   -0.42009    0.00000    6
    8      0.333D-04      0.845D-05      -233.42227402    621.730921    0.35744   -0.42078    0.00000    7
    9      0.101D-04      0.114D-05      -233.42227405    621.730159    0.35747   -0.42043    0.00000    6
   10      0.231D-05      0.304D-06      -233.42227405    621.729974    0.35740   -0.42054    0.00000    7
   11      0.511D-06      0.113D-06      -233.42227405    621.730214    0.35741   -0.42053    0.00000    6

 Final alpha occupancy:  21
 Final beta  occupancy:  21

 !UKS STATE 1.1 Energy               -233.422274051362
 Nuclear energy                       198.77359127
 One-electron energy                 -709.12922741
 Two-electron energy                  310.86510722
 Density functional                   -33.93174513     PBEXREV=-32.55477009 PBEC= -1.37697504
 Virial quotient                       -1.01097222
 !UKS STATE 1.1 Dipole moment           0.35741279    -0.42053020     0.00000000
 Dipole moment /Debye                   0.90839319    -1.06881114     0.00000000

 Orbital energies for positive spin:

         1.1          2.1          3.1          4.1          5.1          6.1          7.1          8.1          9.1         10.1
    -18.752787    -9.956871    -9.896296    -9.896280    -9.891330    -0.909504    -0.703564    -0.615093    -0.614280    -0.503036

        11.1         12.1         13.1         14.1         15.1         16.1         17.1         18.1         19.1         20.1
     -0.431667    -0.396598    -0.394947    -0.357920    -0.346425    -0.330342    -0.318192    -0.303767    -0.299422    -0.267488

        21.1         22.1         23.1
     -0.210187     0.023948     0.069942

 Orbital energies for negative spin:

         1.1          2.1          3.1          4.1          5.1          6.1          7.1          8.1          9.1         10.1
    -18.752787    -9.956871    -9.896296    -9.896280    -9.891330    -0.909504    -0.703564    -0.615093    -0.614280    -0.503036

        11.1         12.1         13.1         14.1         15.1         16.1         17.1         18.1         19.1         20.1
     -0.431667    -0.396598    -0.394947    -0.357920    -0.346425    -0.330342    -0.318192    -0.303767    -0.299422    -0.267488

        21.1         22.1         23.1
     -0.210187     0.023948     0.069942

 HOMO     21.1    -0.210187 =      -5.7195eV
 LUMO     22.1     0.023948 =       0.6516eV
 LUMO-HOMO         0.234134 =       6.3711eV

 EXPECTATION VALUE OF S**2:            -0.00000000

 Natural orbitals saved to record    2200.2 (Orbital set 3)

 Orbital spaces for UNO-CAS (Min. occupation: 0.020  Max. occupation: 1.980):

 Closed:       21
 Active:        0


 **********************************************************************************************************************************
 DATASETS  * FILE   NREC   LENGTH (MB)   RECORD NAMES
              1      20      122.15       500      610      700      900      950      970     1000      129      960     1100   
                                          VAR    BASINP    GEOM    SYMINP    ZMAT    AOBASIS   BASIS     P2S    ABASIS      S 
                                         1400     1410     1200     1210     1080     1600     1650     1300     1700     1800   
                                           T        V       H0       H01     AOSYM     SMH    MOLCAS    ERIS     OPER     GRID   

              2       5        3.59       700     1000      520     1800     2200   
                                         GEOM     BASIS   MCVARS    GRID      UKS  

 PROGRAMS   *        TOTAL       UKS       INT
 CPU TIMES  *        26.98     22.97      3.86
 REAL TIME  *        32.54 SEC
 DISK USED  *       426.89 MB      
 **********************************************************************************************************************************


 PROGRAM * Intrinsic Basis Bonding Analysis (IBBA)          Author: G. Knizia

 Molecular orbitals read from record     2200.2  Type=UKS/ALPHA (state 1.1)
 Fock matrix read from record            2200.2  Type=UKS/TOTAL (state 1.1)
 Orbital energies read from record       2200.2  Type=UKS/ALPHA (state 1.1)
 Density matrix read from record         2200.2  Type=UKS/CHARGE (state 1.1)

 Number of core orbitals:           5 (   5 )
 Number of closed-shell orbitals:  16 (  16 )

 Basis set MINAO-AUTO-PP generated.      Number of basis functions:   35 

 Polarized AO type:                A = (O Ot + (1-O)(1-Ot)) P12
 Orthogonalization method:         Symmetric (Loewdin)
 Localization functional:          L = sum[A,i] <i|n_A|i>^4 -> max

 Localization group 1:  21 orbitals, occupancy  2.000
 Iterative localization: IB/PM,    7 iter; Final gradient 0.28E-08

 Bond order analysis:       [THRPRINT= 0.020]

   CEN ATOM   CEN ATOM     WIBERG.BO      RENORM.BO
     1   C  -   2   C       0.994617       0.991910
     1   C  -   5   H       0.963491       0.986195
     1   C  -   6   H       0.958822       0.980284
     1   C  -   7   H       0.958822       0.980284

     2   C  -   1   C       0.994617       0.991910
     2   C  -   9   C       0.993213       0.972320
     2   C  -   8   C       0.993213       0.972320
     2   C  -   3   O       0.946544       0.950307

     3   O  -   2   C       0.946544       0.950307
     3   O  -   4   H       0.873985       0.975109
     3   O  -   8   C       0.030588       0.015674
     3   O  -   9   C       0.030588       0.015674

     4   H  -   3   O       0.873985       0.975109

     5   H  -   1   C       0.963491       0.986195

     6   H  -   1   C       0.958822       0.980284

     7   H  -   1   C       0.958822       0.980284

     8   C  -   2   C       0.993213       0.972320
     8   C  -  14   H       0.962803       0.981086
     8   C  -  10   H       0.959434       0.980093
     8   C  -  12   H       0.958792       0.979397
     8   C  -   3   O       0.030588       0.015674

     9   C  -   2   C       0.993213       0.972320
     9   C  -  15   H       0.962803       0.981086
     9   C  -  11   H       0.959434       0.980093
     9   C  -  13   H       0.958792       0.979397
     9   C  -   3   O       0.030588       0.015674

    10   H  -   8   C       0.959434       0.980093

    11   H  -   9   C       0.959434       0.980093

    12   H  -   8   C       0.958792       0.979397

    13   H  -   9   C       0.958792       0.979397

    14   H  -   8   C       0.962803       0.981086

    15   H  -   9   C       0.962803       0.981086


 Valency analysis:

   CEN ATOM   TOT.VALENCE
     1   C       3.940254
     2   C       3.938978
     3   O       1.955299
     4   H       0.894544
     5   H       0.983429
     6   H       0.981141
     7   H       0.981141
     8   C       3.942699
     9   C       3.942699
    10   H       0.981257
    11   H       0.981257
    12   H       0.982770
    13   H       0.982770
    14   H       0.985012
    15   H       0.985012

 Total charge composition:

   CEN ATOM         s          p       ELECTRONS ->P.CHARGE
     1   C       3.02816    3.37012      6.39828   -0.39828
     2   C       2.92619    2.83201      5.75820    0.24180
     3   O       3.63809    4.89026      8.52834   -0.52834
     4   H       0.67526                 0.67526    0.32474
     5   H       0.87127                 0.87127    0.12873
     6   H       0.86267                 0.86267    0.13733
     7   H       0.86267                 0.86267    0.13733
     8   C       3.03489    3.37735      6.41224   -0.41224
     9   C       3.03489    3.37735      6.41224   -0.41224
    10   H       0.86310                 0.86310    0.13690
    11   H       0.86310                 0.86310    0.13690
    12   H       0.86874                 0.86874    0.13126
    13   H       0.86874                 0.86874    0.13126
    14   H       0.87758                 0.87758    0.12242
    15   H       0.87758                 0.87758    0.12242

 Total charge composition, AO contributions:

   CEN ATOM SHL      SPHERICAL COMPONENTS
     1   C  1s       1.99108
     1   C  2s       1.03708
     1   C  2p       1.04422    1.15696    1.16894

     2   C  1s       1.99274
     2   C  2s       0.93345
     2   C  2p       1.01277    0.80500    1.01424

     3   O  1s       1.99714
     3   O  2s       1.64095
     3   O  2p       1.46050    1.47911    1.95064

     4   H  1s       0.67526

     5   H  1s       0.87127

     6   H  1s       0.86267

     7   H  1s       0.86267

     8   C  1s       1.99118
     8   C  2s       1.04371
     8   C  2p       1.14003    1.14104    1.09628

     9   C  1s       1.99118
     9   C  2s       1.04371
     9   C  2p       1.14003    1.14104    1.09628

    10   H  1s       0.86310

    11   H  1s       0.86310

    12   H  1s       0.86874

    13   H  1s       0.86874

    14   H  1s       0.87758

    15   H  1s       0.87758

 Summary of localized orbital composition:   [THRPRINT= 0.020]

   ORB  GRP  ORB.ENERGY      CENTERS/CHARGES
     1   1   -18.604571      O  3   2.000
     2   1    -9.867674      C  2   2.000
     3   1    -9.784752      C  8   2.000
     4   1    -9.784752      C  9   2.000
     5   1    -9.779011      C  1   2.000
     6   1    -0.683217      O  3   1.327   H  4   0.663
     7   1    -0.647956      O  3   1.266   C  2   0.715
     8   1    -0.513489      C  9   1.009   C  2   0.975
     9   1    -0.513489      C  8   1.009   C  2   0.975
    10   1    -0.513116      C  1   0.991   C  2   0.983   (other: 0.026)
    11   1    -0.478533      O  3   1.980   (other: 0.020)
    12   1    -0.447549      C  8   1.127   H 12   0.858
    13   1    -0.447549      C  9   1.127   H 13   0.858
    14   1    -0.446651      C  9   1.118   H 15   0.870
    15   1    -0.446651      C  8   1.118   H 14   0.870
    16   1    -0.443539      C  1   1.122   H  5   0.864
    17   1    -0.441927      C  9   1.135   H 11   0.854
    18   1    -0.441927      C  8   1.135   H 10   0.854
    19   1    -0.437252      C  1   1.134   H  7   0.854
    20   1    -0.437252      C  1   1.134   H  6   0.854
    21   1    -0.235108      O  3   1.951   (other: 0.049)

 Localized orbitals saved to record      2200.2  (orbital set 4)


 **********************************************************************************************************************************
 DATASETS  * FILE   NREC   LENGTH (MB)   RECORD NAMES
              1      20      122.15       500      610      700      900      950      970     1000      129      960     1100   
                                          VAR    BASINP    GEOM    SYMINP    ZMAT    AOBASIS   BASIS     P2S    ABASIS      S 
                                         1400     1410     1200     1210     1080     1600     1650     1300     1700     1800   
                                           T        V       H0       H01     AOSYM     SMH    MOLCAS    ERIS     OPER     GRID   

              2       5        3.71       700     1000      520     1800     2200   
                                         GEOM     BASIS   MCVARS    GRID      UKS  

 PROGRAMS   *        TOTAL      IBBA       UKS       INT
 CPU TIMES  *        27.02      0.04     22.97      3.86
 REAL TIME  *        32.67 SEC
 DISK USED  *       426.89 MB      
 **********************************************************************************************************************************
 Molecular orbitals read from record     2200.2  Type=UKS/LOCAL(IBO)  
 Occupation numbers read from record     2200.2  Type=UKS/LOCAL(IBO)  
 Orbital energies read from record       2200.2  Type=UKS/LOCAL(IBO)  
 Redundancy group numbers read from rec  2200.2  Type=UKS/BETA (state 1.1)

 IBBA/SVP energy=      0.000000000000

        UKS-SCF 
   -233.42227405
 **********************************************************************************************************************************
 Molpro calculation terminated
