
 Primary working directories    : /tmp/sb13343
 Secondary working directories  : /tmp/sb13343
 Wavefunction directory         : /panfs/panasas01/chem/sb13343/wfu/
 Main file repository           : /tmp/sb13343/

 SHA1      : b4a5b34a9e711420743f49e6833241d17c61fb3c
 NAME      : 2099.9.b4a5b34
 ARCHNAME  : linux/x86_64_openmp
 FC        : /cm/shared/languages/GCC-6.1/bin/gfortran
 BLASLIB   : -lblas
 id        : simonbennie

 Nodes     nprocs
 node33-010    1

 Using customized tuning parameters: mindgm=1; mindgv=20; mindgc=4; mindgr=1; noblas=0; minvec=7
 default implementation of scratch files=df  

 memory,500,m
 geomtyp=xyz
 nosym
 noorient
 geometry={
 C          0.00000        0.00000        0.00000
 C          0.00000        0.00000        1.53307
 O          1.40344        0.00000        1.86307
 C          1.76314        0.00000        3.22887
 H         -1.02289        0.00000       -0.39176
 H          0.51995       -0.88625       -0.37815
 H          0.51995        0.88625       -0.37815
 H          2.85677        0.00000        3.25413
 H          1.40708       -0.89217        3.76475
 H          1.40708        0.89217        3.76475
 C         -0.69252       -1.26694        2.06222
 C         -0.69252        1.26694        2.06222
 H         -0.15366       -2.16088        1.72982
 H         -0.15366        2.16088        1.72982
 H         -1.72011       -1.32515        1.68649
 H         -1.72011        1.32515        1.68649
 H         -0.74365       -1.28188        3.15638
 H         -0.74365        1.28188        3.15638
 }
 basis={ default,svp }
 {uks,M11-L,direct;wf,50,1,0}
 {ibba,bonds=1}

 Variables initialized (895), CPU time= 0.00 sec
 Commands  initialized (725), CPU time= 0.01 sec, 591 directives.
 Default parameters read. Elapsed time= 0.08 sec

 Checking input...
 Passed
1


                                         ***  PROGRAM SYSTEM MOLPRO  ***
                                       Copyright, TTI GmbH Stuttgart, 2015
                                    Version 2099.9 linked May 26 2017 16:03:21


 **********************************************************************************************************************************
 LABEL *                                                                                 
  64 bit serial version                                                                  DATE: 09-Jun-17          TIME: 01:59:24  
 **********************************************************************************************************************************

 SHA1:             b4a5b34a9e711420743f49e6833241d17c61fb3c
 **********************************************************************************************************************************
 SETTING GEOMTYP        =    XYZ

 Variable memory set to  500000000 words,  buffer space 

 ZSYMEL=NOSYM

 SETTING BASIS          =    SVP


 Recomputing integrals since basis changed


 Using spherical harmonics

 Library entry C      S def2-SVP             selected for orbital group  1
 Library entry C      P def2-SVP             selected for orbital group  1
 Library entry C      D def2-SVP             selected for orbital group  1
 Library entry O      S def2-SVP             selected for orbital group  2
 Library entry O      P def2-SVP             selected for orbital group  2
 Library entry O      D def2-SVP             selected for orbital group  2
 Library entry H      S def2-SVP             selected for orbital group  4
 Library entry H      P def2-SVP             selected for orbital group  4


 PROGRAM * SEWARD (Integral evaluation for generally contracted gaussian basis sets)     Author: Roland Lindh, 1990

 Geometry written to block  1 of record 700


 Point group  C1  



 ATOMIC COORDINATES

 NR  ATOM    CHARGE       X              Y              Z

   1  C       6.00    0.000000000    0.000000000    0.000000000
   2  C       6.00    0.000000000    0.000000000    2.897082430
   3  O       8.00    2.652117232    0.000000000    3.520692051
   4  C       6.00    3.331851719    0.000000000    6.101679992
   5  H       1.00   -1.932981956    0.000000000   -0.740319107
   6  H       1.00    0.982563098   -1.674769778   -0.714599934
   7  H       1.00    0.982563098    1.674769778   -0.714599934
   8  H       1.00    5.398512901    0.000000000    6.149414474
   9  H       1.00    2.658995835   -1.685956957    7.114346427
  10  H       1.00    2.658995835    1.685956957    7.114346427
  11  C       6.00   -1.308673136   -2.394169616    3.897031009
  12  C       6.00   -1.308673136    2.394169616    3.897031009
  13  H       1.00   -0.290375316   -4.083471388    3.268886045
  14  H       1.00   -0.290375316    4.083471388    3.268886045
  15  H       1.00   -3.250536804   -2.504170574    3.187004212
  16  H       1.00   -3.250536804    2.504170574    3.187004212
  17  H       1.00   -1.405294833   -2.422402125    5.964693745
  18  H       1.00   -1.405294833    2.422402125    5.964693745

 Bond lengths in Bohr (Angstrom)

 1-2  2.897082430  1-5  2.069901355  1-6  2.069042560  1-7  2.069042560  2-3  2.724447609
     ( 1.533070000)     ( 1.095344626)     ( 1.094890171)     ( 1.094890171)     ( 1.441715587)

  2-11  2.905954351   2-12  2.905954351   3- 4  2.668995640   4- 8  2.067212379   4- 9  2.078624355
       ( 1.537764818)       ( 1.537764818)       ( 1.412371669)       ( 1.093921681)       ( 1.099960639)

  4-10  2.078624355  11-13  2.070081404  11-15  2.070524757  11-17  2.070111596  12-14  2.070081404
       ( 1.099960639)       ( 1.095439904)       ( 1.095674516)       ( 1.095455880)       ( 1.095439904)

 12-16  2.070524757  12-18  2.070111596
       ( 1.095674516)       ( 1.095455880)

 Bond angles

  1- 2- 3  103.23196371   1- 2-11  110.12706952   1- 2-12  110.12706952   2- 1- 5  110.95650426

  2- 1- 6  110.20481748   2- 1- 7  110.20481748   2- 3- 4  117.98647004   2-11-13  110.26679927

  2-11-15  110.37287188   2-11-17  112.08316935   2-12-14  110.26679927   2-12-16  110.37287188

  2-12-18  112.08316935   3- 2-11  111.07703285   3- 2-12  111.07703285   3- 4- 8  106.07765410

  3- 4- 9  112.87219182   3- 4-10  112.87219182   5- 1- 6  108.65976572   5- 1- 7  108.65976572

  6- 1- 7  108.08288210   8- 4- 9  108.20190897   8- 4-10  108.20190897   9- 4-10  108.40564999

 11- 2-12  110.95103964  13-11-15  108.29648994  13-11-17  108.35544687  14-12-16  108.29648994

 14-12-18  108.35544687  15-11-17  107.33851825  16-12-18  107.33851825

 NUCLEAR CHARGE:                   50
 NUMBER OF PRIMITIVE AOS:         234
 NUMBER OF SYMMETRY AOS:          228
 NUMBER OF CONTRACTIONS:          144   ( 144A   )
 NUMBER OF CORE ORBITALS:           6   (   6A   )
 NUMBER OF VALENCE ORBITALS:       36   (  36A   )


 NUCLEAR REPULSION ENERGY  270.15500869


 Eigenvalues of metric

         1 0.176E-02 0.508E-02 0.513E-02 0.102E-01 0.124E-01 0.215E-01 0.221E-01 0.252E-01


 Contracted 2-electron integrals neglected if value below      1.0D-11
 AO integral compression algorithm  1   Integral accuracy      1.0D-11

     186.384 MB (compressed) written to integral file ( 41.3%)


 NUMBER OF SORTED TWO-ELECTRON INTEGRALS:   54502020.     BUFFER LENGTH:  32768
 NUMBER OF SEGMENTS:   4  SEGMENT LENGTH:   15999503      RECORD LENGTH: 524288

 Memory used in sort:      16.56 MW

 SORT1 READ    56333432. AND WROTE    45703433. INTEGRALS IN    132 RECORDS. CPU TIME:     0.69 SEC, REAL TIME:     1.32 SEC
 SORT2 READ    45703433. AND WROTE    54502020. INTEGRALS IN    711 RECORDS. CPU TIME:     1.03 SEC, REAL TIME:     1.33 SEC

 FILE SIZES:   FILE 1:   217.4 MBYTE,  FILE 4:   553.7 MBYTE,   TOTAL:    771.1 MBYTE

 OPERATOR DM      FOR CENTER  0  COORDINATES:    0.000000    0.000000    0.000000


 **********************************************************************************************************************************
 DATASETS  * FILE   NREC   LENGTH (MB)   RECORD NAMES
              1      19      194.45       500      610      700      900      950      970     1000      129      960     1100   
                                          VAR    BASINP    GEOM    SYMINP    ZMAT    AOBASIS   BASIS     P2S    ABASIS      S 
                                         1400     1410     1200     1210     1080     1600     1650     1300     1700   
                                           T        V       H0       H01     AOSYM     SMH    MOLCAS    ERIS     OPER   

 PROGRAMS   *        TOTAL       INT
 CPU TIMES  *         6.89      6.75
 REAL TIME  *         8.99 SEC
 DISK USED  *       771.70 MB      
 **********************************************************************************************************************************

 Density functional group M11-L=XC-M11-L
 Functional: XC-M11-L(via MFM 1.6)                                             Gradient terms: 1
 Use grid at  1800.2

 Functional: XC-M11-L                  Factor:  1.0000

 Generated new metagrid on record  1800.2 with target accuracy 1.0D-06 and 66012 points in CPU time    1.9
 Computed new grid on record 1800.1 in CPU time    2.1
  118710 words reserved for DFT integration

 PROGRAM * UKS-SCF (Unrestricted Kohn-Sham)     Authors: W. Meyer, H.-J. Werner, P.J. Knowles, 1993

 NUMBER OF ELECTRONS:      25+   25-    SPACE SYMMETRY=1    SPIN SYMMETRY: Singlet 
 CONVERGENCE THRESHOLDS:    1.00E-05 (Density)    1.00E-06 (Energy)
 MAX. NUMBER OF ITERATIONS:       60
 INTERPOLATION TYPE:            DIIS
 INTERPOLATION STEPS:              2 (START)      1 (STEP)
 LEVEL SHIFTS:                 -0.20 (ALPHA)  -0.20 (BETA) 



 Use fine grid record 1800.2 for energy threshold  1.0D-06
 Orbital guess generated from atomic densities. Full valence occupancy:   25

 Molecular orbital dump at record        2200.2

 Initial alpha occupation  25
 Initial beta  occupation  25

 ITERATION    DDIFF          GRAD             ENERGY        2-EL.EN.            DIPOLE MOMENTS         DIIS
    1      0.000D+00      0.000D+00      -272.36551835    819.164705   -0.74909    0.00000    0.65683    0
    2      0.947D-02      0.463D-02      -272.61133213    796.198998   -0.35183    0.00000    0.24236    1
    3      0.283D-02      0.164D-02      -272.63492512    801.400807   -0.40452    0.00000    0.33148    2
    4      0.782D-03      0.231D-03      -272.63573269    800.862149   -0.37015    0.00000    0.30138    3
    5      0.365D-03      0.116D-03      -272.63594329    800.888603   -0.37440    0.00000    0.30579    4
    6      0.289D-03      0.406D-04      -272.63598966    800.831983   -0.36391    0.00000    0.30062    5
    7      0.455D-04      0.141D-04      -272.63599196    800.816868   -0.36577    0.00000    0.30100    6
    8      0.158D-04      0.505D-05      -272.63599229    800.823316   -0.36545    0.00000    0.30086    7
    9      0.484D-05      0.728D-06      -272.63599230    800.822425   -0.36518    0.00000    0.30071    6
   10      0.150D-05      0.245D-06      -272.63599230    800.822674   -0.36525    0.00000    0.30075    7

 Final alpha occupancy:  25
 Final beta  occupancy:  25

 !UKS STATE 1.1 Energy               -272.635992304278
 Nuclear energy                       270.15500869
 One-electron energy                 -903.09639568
 Two-electron energy                  400.41133684
 Density functional                   -40.10594216     XC-M11-L=-40.10594216
 Virial quotient                       -1.00693755
 !UKS STATE 1.1 Dipole moment          -0.36525454     0.00000000     0.30074775
 Dipole moment /Debye                  -0.92832364     0.00000000     0.76437447

 Orbital energies for positive spin:

         1.1          2.1          3.1          4.1          5.1          6.1          7.1          8.1          9.1         10.1
    -19.376983   -10.426072   -10.402247   -10.355279   -10.355275   -10.350114    -1.029732    -0.773019    -0.666256    -0.661304

        11.1         12.1         13.1         14.1         15.1         16.1         17.1         18.1         19.1         20.1
     -0.640293    -0.523184    -0.456869    -0.432821    -0.428225    -0.397743    -0.383675    -0.370251    -0.353462    -0.347470

        21.1         22.1         23.1         24.1         25.1         26.1         27.1
     -0.337219    -0.321020    -0.319307    -0.280871    -0.236167     0.013449     0.044456

 Orbital energies for negative spin:

         1.1          2.1          3.1          4.1          5.1          6.1          7.1          8.1          9.1         10.1
    -19.376983   -10.426072   -10.402247   -10.355279   -10.355275   -10.350114    -1.029732    -0.773019    -0.666256    -0.661304

        11.1         12.1         13.1         14.1         15.1         16.1         17.1         18.1         19.1         20.1
     -0.640293    -0.523184    -0.456869    -0.432821    -0.428225    -0.397743    -0.383675    -0.370251    -0.353462    -0.347470

        21.1         22.1         23.1         24.1         25.1         26.1         27.1
     -0.337219    -0.321020    -0.319307    -0.280871    -0.236167     0.013449     0.044456

 HOMO     25.1    -0.236167 =      -6.4264eV
 LUMO     26.1     0.013449 =       0.3660eV
 LUMO-HOMO         0.249617 =       6.7924eV

 EXPECTATION VALUE OF S**2:            -0.00000000

 Natural orbitals saved to record    2200.2 (Orbital set 3)

 Orbital spaces for UNO-CAS (Min. occupation: 0.020  Max. occupation: 1.980):

 Closed:       25
 Active:        0


 **********************************************************************************************************************************
 DATASETS  * FILE   NREC   LENGTH (MB)   RECORD NAMES
              1      20      196.57       500      610      700      900      950      970     1000      129      960     1100   
                                          VAR    BASINP    GEOM    SYMINP    ZMAT    AOBASIS   BASIS     P2S    ABASIS      S 
                                         1400     1410     1200     1210     1080     1600     1650     1300     1700     1800   
                                           T        V       H0       H01     AOSYM     SMH    MOLCAS    ERIS     OPER     GRID   

              2       5        3.91       700     1000      520     1800     2200   
                                         GEOM     BASIS   MCVARS    GRID      UKS  

 PROGRAMS   *        TOTAL       UKS       INT
 CPU TIMES  *        93.50     86.60      6.75
 REAL TIME  *        96.78 SEC
 DISK USED  *       771.70 MB      
 **********************************************************************************************************************************


 PROGRAM * Intrinsic Basis Bonding Analysis (IBBA)          Author: G. Knizia

 Molecular orbitals read from record     2200.2  Type=UKS/ALPHA (state 1.1)
 Fock matrix read from record            2200.2  Type=UKS/TOTAL (state 1.1)
 Orbital energies read from record       2200.2  Type=UKS/ALPHA (state 1.1)
 Density matrix read from record         2200.2  Type=UKS/CHARGE (state 1.1)

 Number of core orbitals:           6 (   6 )
 Number of closed-shell orbitals:  19 (  19 )

 Basis set MINAO-AUTO-PP generated.      Number of basis functions:   42 

 Polarized AO type:                A = (O Ot + (1-O)(1-Ot)) P12
 Orthogonalization method:         Symmetric (Loewdin)
 Localization functional:          L = sum[A,i] <i|n_A|i>^4 -> max

 Localization group 1:  25 orbitals, occupancy  2.000
 Iterative localization: IB/PM,    7 iter; Final gradient 0.10E-08

 Bond order analysis:       [THRPRINT= 0.020]

   CEN ATOM   CEN ATOM     WIBERG.BO      RENORM.BO
     1   C  -   2   C       0.998306       0.996197
     1   C  -   5   H       0.964617       0.986782
     1   C  -   6   H       0.958865       0.980375
     1   C  -   7   H       0.958865       0.980375

     2   C  -   1   C       0.998306       0.996197
     2   C  -  12   C       0.994172       0.973575
     2   C  -  11   C       0.994172       0.973575
     2   C  -   3   O       0.910933       0.929505

     3   O  -   4   C       0.983725       1.016182
     3   O  -   2   C       0.910933       0.929505
     3   O  -   9   H       0.034581       0.020453
     3   O  -  10   H       0.034581       0.020453
     3   O  -  12   C       0.026143       0.013543
     3   O  -  11   C       0.026143       0.013543

     4   C  -   3   O       0.983725       1.016182
     4   C  -   8   H       0.956555       0.976044
     4   C  -   9   H       0.949860       0.934566
     4   C  -  10   H       0.949860       0.934566

     5   H  -   1   C       0.964617       0.986782

     6   H  -   1   C       0.958865       0.980375

     7   H  -   1   C       0.958865       0.980375

     8   H  -   4   C       0.956555       0.976044

     9   H  -   4   C       0.949860       0.934566
     9   H  -   3   O       0.034581       0.020453

    10   H  -   4   C       0.949860       0.934566
    10   H  -   3   O       0.034581       0.020453

    11   C  -   2   C       0.994172       0.973575
    11   C  -  17   H       0.961963       0.979713
    11   C  -  15   H       0.960317       0.985871
    11   C  -  13   H       0.959597       0.980412
    11   C  -   3   O       0.026143       0.013543

    12   C  -   2   C       0.994172       0.973575
    12   C  -  18   H       0.961963       0.979713
    12   C  -  16   H       0.960317       0.985871
    12   C  -  14   H       0.959597       0.980412
    12   C  -   3   O       0.026143       0.013543

    13   H  -  11   C       0.959597       0.980412

    14   H  -  12   C       0.959597       0.980412

    15   H  -  11   C       0.960317       0.985871

    16   H  -  12   C       0.960317       0.985871

    17   H  -  11   C       0.961963       0.979713

    18   H  -  12   C       0.961963       0.979713


 Valency analysis:

   CEN ATOM   TOT.VALENCE
     1   C       3.942873
     2   C       3.926213
     3   O       2.084427
     4   C       3.865484
     5   H       0.983204
     6   H       0.980173
     7   H       0.980173
     8   H       0.977845
     9   H       0.988464
    10   H       0.988464
    11   C       3.943427
    12   C       3.943427
    13   H       0.980642
    14   H       0.980642
    15   H       0.981059
    16   H       0.981059
    17   H       0.983474
    18   H       0.983474

 Total charge composition:

   CEN ATOM         s          p       ELECTRONS ->P.CHARGE
     1   C       3.06203    3.35065      6.41269   -0.41269
     2   C       2.94608    2.76380      5.70988    0.29012
     3   O       3.64460    4.79073      8.43533   -0.43533
     4   C       3.04327    3.12550      6.16877   -0.16877
     5   H       0.87040                 0.87040    0.12960
     6   H       0.85919                 0.85919    0.14081
     7   H       0.85919                 0.85919    0.14081
     8   H       0.85115                 0.85115    0.14885
     9   H       0.89259                 0.89259    0.10741
    10   H       0.89259                 0.89259    0.10741
    11   C       3.06212    3.36730      6.42942   -0.42942
    12   C       3.06212    3.36730      6.42942   -0.42942
    13   H       0.86087                 0.86087    0.13913
    14   H       0.86087                 0.86087    0.13913
    15   H       0.86237                 0.86237    0.13763
    16   H       0.86237                 0.86237    0.13763
    17   H       0.87145                 0.87145    0.12855
    18   H       0.87145                 0.87145    0.12855

 Total charge composition, AO contributions:

   CEN ATOM SHL      SPHERICAL COMPONENTS
     1   C  1s       1.98880
     1   C  2s       1.07323
     1   C  2p       1.14807    1.16139    1.04120

     2   C  1s       1.99068
     2   C  2s       0.95540
     2   C  2p       0.77277    0.99528    0.99575

     3   O  1s       1.99680
     3   O  2s       1.64779
     3   O  2p       1.43773    1.90952    1.44349

     4   C  1s       1.98956
     4   C  2s       1.05370
     4   C  2p       1.14585    1.14992    0.82973

     5   H  1s       0.87040

     6   H  1s       0.85919

     7   H  1s       0.85919

     8   H  1s       0.85115

     9   H  1s       0.89259

    10   H  1s       0.89259

    11   C  1s       1.98886
    11   C  2s       1.07326
    11   C  2p       1.13556    1.09161    1.14013

    12   C  1s       1.98886
    12   C  2s       1.07326
    12   C  2p       1.13556    1.09161    1.14013

    13   H  1s       0.86087

    14   H  1s       0.86087

    15   H  1s       0.86237

    16   H  1s       0.86237

    17   H  1s       0.87145

    18   H  1s       0.87145

 Summary of localized orbital composition:   [THRPRINT= 0.020]

   ORB  GRP  ORB.ENERGY      CENTERS/CHARGES
     1   1   -19.212337      O  3   2.000
     2   1   -10.331574      C  2   2.000
     3   1   -10.285914      C  4   2.000
     4   1   -10.233515      C 12   2.000
     5   1   -10.233515      C 11   2.000
     6   1   -10.227623      C  1   2.000
     7   1    -0.740881      O  3   1.263   C  4   0.727
     8   1    -0.721038      O  3   1.296   C  2   0.677   (other: 0.027)
     9   1    -0.582568      O  3   1.962   (other: 0.038)
    10   1    -0.558906      C 11   1.017   C  2   0.967
    11   1    -0.558906      C 12   1.017   C  2   0.967
    12   1    -0.555375      C  1   1.001   C  2   0.976   (other: 0.024)
    13   1    -0.486968      C  4   1.127   H 10   0.872
    14   1    -0.486968      C  4   1.127   H  9   0.872
    15   1    -0.485028      C  4   1.147   H  8   0.844
    16   1    -0.476084      C 11   1.129   H 15   0.854
    17   1    -0.476084      C 12   1.129   H 16   0.854
    18   1    -0.473286      C 12   1.125   H 18   0.863
    19   1    -0.473286      C 11   1.125   H 17   0.863
    20   1    -0.471761      C  1   1.122   H  5   0.864
    21   1    -0.469651      C 12   1.136   H 14   0.853
    22   1    -0.469651      C 11   1.136   H 13   0.853
    23   1    -0.464931      C  1   1.137   H  7   0.851
    24   1    -0.464931      C  1   1.137   H  6   0.851
    25   1    -0.284114      O  3   1.909   (other: 0.091)

 Localized orbitals saved to record      2200.2  (orbital set 4)


 **********************************************************************************************************************************
 DATASETS  * FILE   NREC   LENGTH (MB)   RECORD NAMES
              1      20      196.57       500      610      700      900      950      970     1000      129      960     1100   
                                          VAR    BASINP    GEOM    SYMINP    ZMAT    AOBASIS   BASIS     P2S    ABASIS      S 
                                         1400     1410     1200     1210     1080     1600     1650     1300     1700     1800   
                                           T        V       H0       H01     AOSYM     SMH    MOLCAS    ERIS     OPER     GRID   

              2       5        4.08       700     1000      520     1800     2200   
                                         GEOM     BASIS   MCVARS    GRID      UKS  

 PROGRAMS   *        TOTAL      IBBA       UKS       INT
 CPU TIMES  *        93.55      0.05     86.60      6.75
 REAL TIME  *        96.94 SEC
 DISK USED  *       771.70 MB      
 **********************************************************************************************************************************
 Molecular orbitals read from record     2200.2  Type=UKS/LOCAL(IBO)  
 Occupation numbers read from record     2200.2  Type=UKS/LOCAL(IBO)  
 Orbital energies read from record       2200.2  Type=UKS/LOCAL(IBO)  
 Redundancy group numbers read from rec  2200.2  Type=UKS/BETA (state 1.1)

 IBBA/SVP energy=      0.000000000000

        UKS-SCF 
   -272.63599230
 **********************************************************************************************************************************
 Molpro calculation terminated
