
 Primary working directories    : /tmp/sb13343
 Secondary working directories  : /tmp/sb13343
 Wavefunction directory         : /panfs/panasas01/chem/sb13343/wfu/
 Main file repository           : /tmp/sb13343/

 SHA1      : b4a5b34a9e711420743f49e6833241d17c61fb3c
 NAME      : 2099.9.b4a5b34
 ARCHNAME  : linux/x86_64_openmp
 FC        : /cm/shared/languages/GCC-6.1/bin/gfortran
 BLASLIB   : -lblas
 id        : simonbennie

 Nodes     nprocs
 node32-034    1

 Using customized tuning parameters: mindgm=1; mindgv=20; mindgc=4; mindgr=1; noblas=0; minvec=7
 default implementation of scratch files=df  

 memory,500,m
 geomtyp=xyz
 nosym
 noorient
 geometry={
 C          0.00000        0.00000        0.00000
 H          0.00000        0.00000        1.10056
 C          1.46209        0.00000       -0.46855
 C         -0.73105       -1.26621       -0.46855
 C         -0.73105        1.26621       -0.46855
 H          1.52118        0.00000       -1.56505
 H         -0.76059       -1.31738       -1.56505
 H         -0.76059        1.31738       -1.56505
 H          1.99755        0.88622       -0.10723
 H          1.99755       -0.88622       -0.10723
 H         -0.23129       -2.17304       -0.10723
 H         -1.76626       -1.28682       -0.10723
 H         -1.76626        1.28682       -0.10723
 H         -0.23129        2.17304       -0.10723
 }
 basis={ default,svp }
 {ks,PBE0MOL,direct;wf,34,1,0}
 {ibba,bonds=1}

 Variables initialized (895), CPU time= 0.01 sec
 Commands  initialized (725), CPU time= 0.01 sec, 591 directives.
 Default parameters read. Elapsed time= 0.07 sec

 Checking input...
 Passed
1


                                         ***  PROGRAM SYSTEM MOLPRO  ***
                                       Copyright, TTI GmbH Stuttgart, 2015
                                    Version 2099.9 linked May 26 2017 16:03:21


 **********************************************************************************************************************************
 LABEL *                                                                                 
  64 bit serial version                                                                  DATE: 09-Jun-17          TIME: 00:14:21  
 **********************************************************************************************************************************

 SHA1:             b4a5b34a9e711420743f49e6833241d17c61fb3c
 **********************************************************************************************************************************
 SETTING GEOMTYP        =    XYZ

 Variable memory set to  500000000 words,  buffer space 

 ZSYMEL=NOSYM

 SETTING BASIS          =    SVP


 Recomputing integrals since basis changed


 Using spherical harmonics

 Library entry C      S def2-SVP             selected for orbital group  1
 Library entry C      P def2-SVP             selected for orbital group  1
 Library entry C      D def2-SVP             selected for orbital group  1
 Library entry H      S def2-SVP             selected for orbital group  2
 Library entry H      P def2-SVP             selected for orbital group  2


 PROGRAM * SEWARD (Integral evaluation for generally contracted gaussian basis sets)     Author: Roland Lindh, 1990

 Geometry written to block  1 of record 700


 Point group  C1  



 ATOMIC COORDINATES

 NR  ATOM    CHARGE       X              Y              Z

   1  C       6.00    0.000000000    0.000000000    0.000000000
   2  H       1.00    0.000000000    0.000000000    2.079756984
   3  C       6.00    2.762949669    0.000000000   -0.885431176
   4  C       6.00   -1.381484283   -2.392790116   -0.885431176
   5  C       6.00   -1.381484283    2.392790116   -0.885431176
   6  H       1.00    2.874613586    0.000000000   -2.957515871
   7  H       1.00   -1.437306793   -2.489487402   -2.957515871
   8  H       1.00   -1.437306793    2.489487402   -2.957515871
   9  H       1.00    3.774822420    1.674713086   -0.202635332
  10  H       1.00    3.774822420   -1.674713086   -0.202635332
  11  H       1.00   -0.437074755   -4.106450458   -0.202635332
  12  H       1.00   -3.337747665   -2.431737372   -0.202635332
  13  H       1.00   -3.337747665    2.431737372   -0.202635332
  14  H       1.00   -0.437074755    4.106450458   -0.202635332

 Bond lengths in Bohr (Angstrom)

 1-2  2.079756984  1-3  2.901358172  1-4  2.901367218  1-5  2.901367218  3-6  2.075091279
     ( 1.100560000)     ( 1.535332625)     ( 1.535337412)     ( 1.535337412)     ( 1.098091015)

  3- 9  2.072380406   3-10  2.072380406   4- 7  2.075090722   4-11  2.072378172   4-12  2.072364222
       ( 1.096656483)       ( 1.096656483)       ( 1.098090721)       ( 1.096655301)       ( 1.096647919)

  5- 8  2.075090722   5-13  2.072364222   5-14  2.072378172
       ( 1.098090721)       ( 1.096647919)       ( 1.096655301)

 Bond angles

  1- 3- 6  110.85354902   1- 3- 9  111.37220114   1- 3-10  111.37220114   1- 4- 7  110.85320625

  1- 4-11  111.37204414   1- 4-12  111.37216555   1- 5- 8  110.85320625   1- 5-13  111.37216555

  1- 5-14  111.37204414   2- 1- 3  107.76888332   2- 1- 4  107.76882608   2- 1- 5  107.76882608

  3-1-4  111.11870751   3-1-5  111.11870751   4-1-5  111.11845005   6-3-9  107.62119374

  6- 3-10  107.62119374   7- 4-11  107.62125572   7- 4-12  107.62162102   8- 5-13  107.62162102

  8- 5-14  107.62125572   9- 3-10  107.82352924  11- 4-12  107.82360822  13- 5-14  107.82360822

 NUCLEAR CHARGE:                   34
 NUMBER OF PRIMITIVE AOS:         170
 NUMBER OF SYMMETRY AOS:          166
 NUMBER OF CONTRACTIONS:          106   ( 106A   )
 NUMBER OF CORE ORBITALS:           4   (   4A   )
 NUMBER OF VALENCE ORBITALS:       26   (  26A   )


 NUCLEAR REPULSION ENERGY  134.07051350


 Eigenvalues of metric

         1 0.225E-02 0.614E-02 0.614E-02 0.233E-01 0.256E-01 0.268E-01 0.268E-01 0.277E-01


 Contracted 2-electron integrals neglected if value below      1.0D-11
 AO integral compression algorithm  1   Integral accuracy      1.0D-11

     64.750 MB (compressed) written to integral file ( 46.7%)


 NUMBER OF SORTED TWO-ELECTRON INTEGRALS:   16082956.     BUFFER LENGTH:  32768
 NUMBER OF SEGMENTS:   2  SEGMENT LENGTH:   15997996      RECORD LENGTH: 524288

 Memory used in sort:      16.56 MW

 SORT1 READ    17384690. AND WROTE    14795173. INTEGRALS IN     44 RECORDS. CPU TIME:     0.20 SEC, REAL TIME:     0.42 SEC
 SORT2 READ    14795173. AND WROTE    16082956. INTEGRALS IN    247 RECORDS. CPU TIME:     0.39 SEC, REAL TIME:     0.50 SEC

 FILE SIZES:   FILE 1:    95.4 MBYTE,  FILE 4:   184.6 MBYTE,   TOTAL:    279.9 MBYTE

 OPERATOR DM      FOR CENTER  0  COORDINATES:    0.000000    0.000000    0.000000


 **********************************************************************************************************************************
 DATASETS  * FILE   NREC   LENGTH (MB)   RECORD NAMES
              1      19       87.57       500      610      700      900      950      970     1000      129      960     1100   
                                          VAR    BASINP    GEOM    SYMINP    ZMAT    AOBASIS   BASIS     P2S    ABASIS      S 
                                         1400     1410     1200     1210     1080     1600     1650     1300     1700   
                                           T        V       H0       H01     AOSYM     SMH    MOLCAS    ERIS     OPER   

 PROGRAMS   *        TOTAL       INT
 CPU TIMES  *         2.60      2.47
 REAL TIME  *         3.35 SEC
 DISK USED  *       280.45 MB      
 **********************************************************************************************************************************

 Density functional group PBE0MOL=PBEX+PW91C
 Functional: PBEX(Automatically generated (new) PBEX)                          Gradient terms: 1
 Functional: PW91C(Automatically generated (new) PW91C)                        Gradient terms: 1
 Use grid at  1800.2


 Exact exchange will be calculated, factor:  0.2500

 Functional: PBEX                      Factor:  0.7500
 Functional: PW91C                     Factor:  1.0000

 Generated new metagrid on record  1800.2 with target accuracy 1.0D-06 and 45620 points in CPU time    1.0
 Computed new grid on record 1800.1 in CPU time    1.2
   88342 words reserved for DFT integration

 PROGRAM * RKS-SCF (Restricted closed shell Kohn-Sham)     Authors: W. Meyer, H.-J. Werner, P.J. Knowles, 1993

 NUMBER OF ELECTRONS:      17+   17-    SPACE SYMMETRY=1    SPIN SYMMETRY: Singlet 
 CONVERGENCE THRESHOLDS:    1.00E-05 (Density)    1.00E-06 (Energy)
 MAX. NUMBER OF ITERATIONS:       60
 INTERPOLATION TYPE:            DIIS
 INTERPOLATION STEPS:              2 (START)      1 (STEP)
 LEVEL SHIFTS:                  0.00 (CLOSED)  0.00 (OPEN) 



 Use fine grid record 1800.2 for energy threshold  1.0D-06
 Orbital guess generated from atomic densities. Full valence occupancy:   17

 Molecular orbital dump at record        2100.2

 Initial occupancy:  17

 ITERATION    DDIFF          GRAD             ENERGY        2-EL.EN.            DIPOLE MOMENTS         DIIS   ORB.
    1      0.000D+00      0.000D+00      -158.05052130    417.790054   -0.00012   -0.00000   -0.01709    0    start
    2      0.000D+00      0.943D-02      -158.00382218    394.127784   -0.00015   -0.00000    0.03518    1    diag
    3      0.183D-01      0.110D-01      -158.20577194    406.902696   -0.00013   -0.00000    0.06285    2    diag
    4      0.104D-01      0.626D-03      -158.20623034    406.650096   -0.00013   -0.00000    0.03156    3    diag
    5      0.680D-03      0.271D-03      -158.20633539    406.721856   -0.00013   -0.00000    0.02907    4    diag
    6      0.224D-03      0.455D-04      -158.20633838    406.725989   -0.00013   -0.00000    0.03661    5    diag
    7      0.534D-04      0.799D-05      -158.20633849    406.729975   -0.00013   -0.00000    0.03433    6    diag
    8      0.104D-04      0.120D-05      -158.20633850    406.730504   -0.00013   -0.00000    0.03463    7    diag
    9      0.135D-05      0.602D-07      -158.20633850    406.730455   -0.00013   -0.00000    0.03461    0    orth

 Final occupancy:  17

 !RKS STATE 1.1 Energy               -158.206338497075
 Nuclear energy                       134.07051350
 One-electron energy                 -476.43141235
 Two-electron energy                  203.36522726
 SCF exchange energy                  -24.23926875     Factor= 0.2500
 Density functional                   -19.21066690     PBEX=-24.06847663 PW91C= -1.15930944
 Virial quotient                       -1.01326853
 !RKS STATE 1.1 Dipole moment          -0.00012757    -0.00000000     0.03461466
 Dipole moment /Debye                  -0.00032423    -0.00000000     0.08797593

 Orbital energies:

         1.1          2.1          3.1          4.1          5.1          6.1          7.1          8.1          9.1         10.1
    -10.239133   -10.223662   -10.223650   -10.223629    -0.815228    -0.692112    -0.692109    -0.568477    -0.473486    -0.441226

        11.1         12.1         13.1         14.1         15.1         16.1         17.1         18.1         19.1
     -0.441217    -0.391828    -0.391823    -0.371400    -0.337715    -0.337713    -0.329289     0.063293     0.109372

 HOMO     17.1    -0.329289 =      -8.9604eV
 LUMO     18.1     0.063293 =       1.7223eV
 LUMO-HOMO         0.392582 =      10.6827eV


 **********************************************************************************************************************************
 DATASETS  * FILE   NREC   LENGTH (MB)   RECORD NAMES
              1      20       89.03       500      610      700      900      950      970     1000      129      960     1100   
                                          VAR    BASINP    GEOM    SYMINP    ZMAT    AOBASIS   BASIS     P2S    ABASIS      S 
                                         1400     1410     1200     1210     1080     1600     1650     1300     1700     1800   
                                           T        V       H0       H01     AOSYM     SMH    MOLCAS    ERIS     OPER     GRID   

              2       5        3.22       700     1000      520     1800     2100   
                                         GEOM     BASIS   MCVARS    GRID      RKS  

 PROGRAMS   *        TOTAL        KS       INT
 CPU TIMES  *        12.47      9.86      2.47
 REAL TIME  *        13.86 SEC
 DISK USED  *       280.45 MB      
 **********************************************************************************************************************************


 PROGRAM * Intrinsic Basis Bonding Analysis (IBBA)          Author: G. Knizia

 Molecular orbitals read from record     2100.2  Type=RKS/CANONICAL (state 1.1)
 Fock matrix read from record            2100.2  Type=RKS/TOTAL (state 1.1)
 Orbital energies read from record       2100.2  Type=RKS/CANONICAL (state 1.1)
 Density matrix read from record         2100.2  Type=RKS/CHARGE (state 1.1)

 Number of core orbitals:           4 (   4 )
 Number of closed-shell orbitals:  13 (  13 )

 Basis set MINAO-AUTO-PP generated.      Number of basis functions:   30 

 Polarized AO type:                A = (O Ot + (1-O)(1-Ot)) P12
 Orthogonalization method:         Symmetric (Loewdin)
 Localization functional:          L = sum[A,i] <i|n_A|i>^4 -> max

 Localization group 1:  17 orbitals, occupancy  2.000
 Iterative localization: IB/PM,    7 iter; Final gradient 0.15E-08

 Bond order analysis:       [THRPRINT= 0.020]

   CEN ATOM   CEN ATOM     WIBERG.BO      RENORM.BO
     1   C  -   3   C       1.013444       1.008999
     1   C  -   4   C       1.013437       1.008988
     1   C  -   5   C       1.013437       1.008988
     1   C  -   2   H       0.934017       0.956475

     2   H  -   1   C       0.934017       0.956475

     3   C  -   1   C       1.013444       1.008999
     3   C  -   9   H       0.964730       0.983912
     3   C  -  10   H       0.964730       0.983912
     3   C  -   6   H       0.963290       0.979017

     4   C  -   1   C       1.013437       1.008988
     4   C  -  11   H       0.964739       0.983915
     4   C  -  12   H       0.964726       0.983914
     4   C  -   7   H       0.963284       0.979014

     5   C  -   1   C       1.013437       1.008988
     5   C  -  14   H       0.964739       0.983915
     5   C  -  13   H       0.964726       0.983914
     5   C  -   8   H       0.963284       0.979014

     6   H  -   3   C       0.963290       0.979017

     7   H  -   4   C       0.963284       0.979014

     8   H  -   5   C       0.963284       0.979014

     9   H  -   3   C       0.964730       0.983912

    10   H  -   3   C       0.964730       0.983912

    11   H  -   4   C       0.964739       0.983915

    12   H  -   4   C       0.964726       0.983914

    13   H  -   5   C       0.964726       0.983914

    14   H  -   5   C       0.964739       0.983915


 Valency analysis:

   CEN ATOM   TOT.VALENCE
     1   C       3.981005
     2   H       0.985365
     3   C       3.941684
     4   C       3.941678
     5   C       3.941678
     6   H       0.984121
     7   H       0.984117
     8   H       0.984117
     9   H       0.983034
    10   H       0.983034
    11   H       0.983041
    12   H       0.983028
    13   H       0.983028
    14   H       0.983041

 Total charge composition:

   CEN ATOM         s          p       ELECTRONS ->P.CHARGE
     1   C       2.95223    3.12678      6.07902   -0.07902
     2   H       0.87903                 0.87903    0.12097
     3   C       3.02331    3.37720      6.40050   -0.40050
     4   C       3.02331    3.37721      6.40051   -0.40051
     5   C       3.02331    3.37721      6.40051   -0.40051
     6   H       0.87399                 0.87399    0.12601
     7   H       0.87397                 0.87397    0.12603
     8   H       0.87397                 0.87397    0.12603
     9   H       0.86975                 0.86975    0.13025
    10   H       0.86975                 0.86975    0.13025
    11   H       0.86977                 0.86977    0.13023
    12   H       0.86972                 0.86972    0.13028
    13   H       0.86972                 0.86972    0.13028
    14   H       0.86977                 0.86977    0.13023

 Total charge composition, AO contributions:

   CEN ATOM SHL      SPHERICAL COMPONENTS
     1   C  1s       1.99159
     1   C  2s       0.96064
     1   C  2p       1.00755    1.00755    1.11168

     2   H  1s       0.87903

     3   C  1s       1.99100
     3   C  2s       1.03231
     3   C  2p       1.06784    1.16071    1.14865

     4   C  1s       1.99100
     4   C  2s       1.03231
     4   C  2p       1.13751    1.09103    1.14867

     5   C  1s       1.99100
     5   C  2s       1.03231
     5   C  2p       1.13751    1.09103    1.14867

     6   H  1s       0.87399

     7   H  1s       0.87397

     8   H  1s       0.87397

     9   H  1s       0.86975

    10   H  1s       0.86975

    11   H  1s       0.86977

    12   H  1s       0.86972

    13   H  1s       0.86972

    14   H  1s       0.86977

 Summary of localized orbital composition:   [THRPRINT= 0.020]

   ORB  GRP  ORB.ENERGY      CENTERS/CHARGES
     1   1   -10.135334      C  1   2.000
     2   1   -10.109121      C  3   2.000
     3   1   -10.109105      C  4   2.000
     4   1   -10.109105      C  5   2.000
     5   1    -0.566736      C  3   1.006   C  1   0.978
     6   1    -0.566728      C  4   1.006   C  1   0.978
     7   1    -0.566728      C  5   1.006   C  1   0.978
     8   1    -0.503923      C  3   1.128   H 10   0.863
     9   1    -0.503923      C  3   1.128   H  9   0.863
    10   1    -0.503918      C  5   1.128   H 14   0.863
    11   1    -0.503918      C  4   1.128   H 11   0.863
    12   1    -0.503915      C  4   1.128   H 12   0.863
    13   1    -0.503915      C  5   1.128   H 13   0.863
    14   1    -0.503126      C  3   1.125   H  6   0.867
    15   1    -0.503116      C  5   1.125   H  8   0.867
    16   1    -0.503116      C  4   1.125   H  7   0.867
    17   1    -0.497971      C  1   1.104   H  2   0.866   (other: 0.030)

 Localized orbitals saved to record      2100.2  (orbital set 2)


 **********************************************************************************************************************************
 DATASETS  * FILE   NREC   LENGTH (MB)   RECORD NAMES
              1      20       89.03       500      610      700      900      950      970     1000      129      960     1100   
                                          VAR    BASINP    GEOM    SYMINP    ZMAT    AOBASIS   BASIS     P2S    ABASIS      S 
                                         1400     1410     1200     1210     1080     1600     1650     1300     1700     1800   
                                           T        V       H0       H01     AOSYM     SMH    MOLCAS    ERIS     OPER     GRID   

              2       5        3.31       700     1000      520     1800     2100   
                                         GEOM     BASIS   MCVARS    GRID      RKS  

 PROGRAMS   *        TOTAL      IBBA        KS       INT
 CPU TIMES  *        12.50      0.03      9.86      2.47
 REAL TIME  *        13.97 SEC
 DISK USED  *       280.45 MB      
 **********************************************************************************************************************************
 Molecular orbitals read from record     2100.2  Type=RKS/LOCAL(IBO)  
 Occupation numbers read from record     2100.2  Type=RKS/LOCAL(IBO)  
 Orbital energies read from record       2100.2  Type=RKS/LOCAL(IBO)  
 Redundancy group numbers read from rec  2100.2  Type=RKS/LOCAL(IBO)  

 IBBA/SVP energy=      0.000000000000

        KS-SCF  
   -158.20633850
 **********************************************************************************************************************************
 Molpro calculation terminated
