
 Primary working directories    : /tmp/sb13343
 Secondary working directories  : /tmp/sb13343
 Wavefunction directory         : /panfs/panasas01/chem/sb13343/wfu/
 Main file repository           : /tmp/sb13343/

 SHA1      : b4a5b34a9e711420743f49e6833241d17c61fb3c
 NAME      : 2099.9.b4a5b34
 ARCHNAME  : linux/x86_64_openmp
 FC        : /cm/shared/languages/GCC-6.1/bin/gfortran
 BLASLIB   : -lblas
 id        : simonbennie

 Nodes     nprocs
 node32-027    1

 Using customized tuning parameters: mindgm=1; mindgv=20; mindgc=4; mindgr=1; noblas=0; minvec=7
 default implementation of scratch files=df  

 memory,500,m
 geomtyp=xyz
 nosym
 noorient
 geometry={
 C          0.00000        0.00000        0.00000
 C          1.54025       -0.00009       -0.00004
 C         -0.51333        1.45219       -0.00005
 C         -0.51349       -0.72611       -1.25756
 C         -0.51342       -0.72599        1.25765
 H         -1.60999        1.48489       -0.00002
 H         -1.61015       -0.74237       -1.28580
 H         -1.61008       -0.74225        1.28596
 H         -0.16312        1.99638        0.88591
 H         -0.16316        1.99630       -0.88608
 H         -0.16333       -0.23096       -2.17186
 H         -0.16339       -1.76551       -1.28580
 H         -0.16332       -1.76539        1.28596
 H         -0.16320       -0.23077        2.17189
 H          1.93652       -1.02316       -0.00001
 H          1.93658        0.51138       -0.88607
 H          1.93663        0.51146        0.88592
 }
 basis={ default,svp }
 {ks,BECKE,direct;wf,42,1,0}
 {ibba,bonds=1}

 Variables initialized (895), CPU time= 0.00 sec
 Commands  initialized (725), CPU time= 0.02 sec, 591 directives.
 Default parameters read. Elapsed time= 0.08 sec

 Checking input...
 Passed
1


                                         ***  PROGRAM SYSTEM MOLPRO  ***
                                       Copyright, TTI GmbH Stuttgart, 2015
                                    Version 2099.9 linked May 26 2017 16:03:21


 **********************************************************************************************************************************
 LABEL *                                                                                 
  64 bit serial version                                                                  DATE: 08-Jun-17          TIME: 22:22:20  
 **********************************************************************************************************************************

 SHA1:             b4a5b34a9e711420743f49e6833241d17c61fb3c
 **********************************************************************************************************************************
 SETTING GEOMTYP        =    XYZ

 Variable memory set to  500000000 words,  buffer space 

 ZSYMEL=NOSYM

 SETTING BASIS          =    SVP


 Recomputing integrals since basis changed


 Using spherical harmonics

 Library entry C      S def2-SVP             selected for orbital group  1
 Library entry C      P def2-SVP             selected for orbital group  1
 Library entry C      D def2-SVP             selected for orbital group  1
 Library entry H      S def2-SVP             selected for orbital group  2
 Library entry H      P def2-SVP             selected for orbital group  2


 PROGRAM * SEWARD (Integral evaluation for generally contracted gaussian basis sets)     Author: Roland Lindh, 1990

 Geometry written to block  1 of record 700


 Point group  C1  



 ATOMIC COORDINATES

 NR  ATOM    CHARGE       X              Y              Z

   1  C       6.00    0.000000000    0.000000000    0.000000000
   2  C       6.00    2.910650663   -0.000170075   -0.000075589
   3  C       6.00   -0.970053112    2.744241381   -0.000094486
   4  C       6.00   -0.970355468   -1.372149036   -2.376443985
   5  C       6.00   -0.970223187   -1.371922269    2.376614061
   6  H       1.00   -3.042440163    2.806035425   -0.000037795
   7  H       1.00   -3.042742519   -1.402875983   -2.429809851
   8  H       1.00   -3.042610239   -1.402649216    2.430112207
   9  H       1.00   -0.308252125    3.772611441    1.674127271
  10  H       1.00   -0.308327714    3.772460262   -1.674448524
  11  H       1.00   -0.308648968   -0.436451146   -4.104220581
  12  H       1.00   -0.308762351   -3.336330370   -2.429809851
  13  H       1.00   -0.308630071   -3.336103603    2.430112207
  14  H       1.00   -0.308403304   -0.436092098    4.104277273
  15  H       1.00    3.659492435   -1.933492182   -0.000018897
  16  H       1.00    3.659605818    0.966368146   -1.674429627
  17  H       1.00    3.659700305    0.966519324    1.674146168

 Bond lengths in Bohr (Angstrom)

  1- 2  2.910650669   1- 3  2.910646630   1- 4  2.910647475   1- 5  2.910635350   2-15  2.073282028
       ( 1.540250003)       ( 1.540247866)       ( 1.540248313)       ( 1.540241896)       ( 1.097133601)

  2-16  2.073304464   2-17  2.073302258   3- 6  2.073308129   3- 9  2.073293037   3-10  2.073300754
       ( 1.097145474)       ( 1.097144306)       ( 1.097147413)       ( 1.097139427)       ( 1.097143510)

  4- 7  2.073301752   4-11  2.073306055   4-12  2.073297296   5- 8  2.073305161   5-13  2.073300706
       ( 1.097144038)       ( 1.097146316)       ( 1.097141681)       ( 1.097145842)       ( 1.097143485)

  5-14  2.073307464
       ( 1.097147061)

 Bond angles

  1- 2-15  111.17643746   1- 2-16  111.17582452   1- 2-17  111.17607088   1- 3- 6  111.17575783

  1- 3- 9  111.17644989   1- 3-10  111.17611121   1- 4- 7  111.17614317   1- 4-11  111.17631877

  1- 4-12  111.17675056   1- 5- 8  111.17663037   1- 5-13  111.17645588   1- 5-14  111.17672823

  2-1-3  109.47117711   2-1-4  109.47117360   2-1-5  109.47107360   3-1-4  109.47144919

  3- 1- 5  109.47121161   4- 1- 5  109.47123870   6- 3- 9  107.71338639   6- 3-10  107.71391335

  7- 4-11  107.71323113   7- 4-12  107.71354587   8- 5-13  107.71328790   8- 5-14  107.71342022

  9- 3-10  107.71420977  11- 4-12  107.71378459  13- 5-14  107.71321488  15- 2-16  107.71365571

 15- 2-17  107.71411853  16- 2-17  107.71372051

 NUCLEAR CHARGE:                   42
 NUMBER OF PRIMITIVE AOS:         209
 NUMBER OF SYMMETRY AOS:          204
 NUMBER OF CONTRACTIONS:          130   ( 130A   )
 NUMBER OF CORE ORBITALS:           5   (   5A   )
 NUMBER OF VALENCE ORBITALS:       32   (  32A   )


 NUCLEAR REPULSION ENERGY  197.66618863


 Eigenvalues of metric

         1 0.175E-02 0.577E-02 0.577E-02 0.577E-02 0.252E-01 0.252E-01 0.252E-01 0.256E-01


 Contracted 2-electron integrals neglected if value below      1.0D-11
 AO integral compression algorithm  1   Integral accuracy      1.0D-11

     139.198 MB (compressed) written to integral file ( 45.3%)


 NUMBER OF SORTED TWO-ELECTRON INTEGRALS:   36256870.     BUFFER LENGTH:  32768
 NUMBER OF SEGMENTS:   3  SEGMENT LENGTH:   15998004      RECORD LENGTH: 524288

 Memory used in sort:      16.56 MW

 SORT1 READ    38373714. AND WROTE    33465425. INTEGRALS IN     97 RECORDS. CPU TIME:     0.47 SEC, REAL TIME:     0.93 SEC
 SORT2 READ    33465425. AND WROTE    36256870. INTEGRALS IN    531 RECORDS. CPU TIME:     0.76 SEC, REAL TIME:     0.97 SEC

 FILE SIZES:   FILE 1:   170.1 MBYTE,  FILE 4:   406.9 MBYTE,   TOTAL:    576.9 MBYTE

 OPERATOR DM      FOR CENTER  0  COORDINATES:    0.000000    0.000000    0.000000


 **********************************************************************************************************************************
 DATASETS  * FILE   NREC   LENGTH (MB)   RECORD NAMES
              1      19      153.85       500      610      700      900      950      970     1000      129      960     1100   
                                          VAR    BASINP    GEOM    SYMINP    ZMAT    AOBASIS   BASIS     P2S    ABASIS      S 
                                         1400     1410     1200     1210     1080     1600     1650     1300     1700   
                                           T        V       H0       H01     AOSYM     SMH    MOLCAS    ERIS     OPER   

 PROGRAMS   *        TOTAL       INT
 CPU TIMES  *         4.99      4.86
 REAL TIME  *        10.57 SEC
 DISK USED  *       577.52 MB      
 **********************************************************************************************************************************

 Density functional group BECKE=B88
 Functional: B88(Automatically generated (new) B88)                            Gradient terms: 1
 Use grid at  1800.2

 Functional: B88                       Factor:  1.0000

 Generated new metagrid on record  1800.2 with target accuracy 1.0D-06 and 57016 points in CPU time    1.7
 Computed new grid on record 1800.1 in CPU time    1.9
  107513 words reserved for DFT integration

 PROGRAM * RKS-SCF (Restricted closed shell Kohn-Sham)     Authors: W. Meyer, H.-J. Werner, P.J. Knowles, 1993

 NUMBER OF ELECTRONS:      21+   21-    SPACE SYMMETRY=1    SPIN SYMMETRY: Singlet 
 CONVERGENCE THRESHOLDS:    1.00E-05 (Density)    1.00E-06 (Energy)
 MAX. NUMBER OF ITERATIONS:       60
 INTERPOLATION TYPE:            DIIS
 INTERPOLATION STEPS:              2 (START)      1 (STEP)
 LEVEL SHIFTS:                  0.00 (CLOSED)  0.00 (OPEN) 



 Use fine grid record 1800.2 for energy threshold  1.0D-06
 Orbital guess generated from atomic densities. Full valence occupancy:   21

 Molecular orbital dump at record        2100.2

 Initial occupancy:  21

 ITERATION    DDIFF          GRAD             ENERGY        2-EL.EN.            DIPOLE MOMENTS         DIIS   ORB.
    1      0.000D+00      0.000D+00      -195.81479372    601.726018   -0.00011   -0.00040   -0.00000    0    start
    2      0.000D+00      0.111D-01      -195.22513611    550.110040   -0.00062   -0.00081    0.00001    1    diag
    3      0.361D-01      0.184D-01      -196.14055636    583.807379   -0.00011   -0.00039   -0.00000    2    diag
    4      0.280D-01      0.165D-02      -196.14502156    582.254447   -0.00019   -0.00045    0.00000    3    diag
    5      0.221D-02      0.876D-03      -196.14669261    582.447683   -0.00019   -0.00047    0.00000    4    diag
    6      0.720D-03      0.749D-04      -196.14670531    582.483089   -0.00018   -0.00046    0.00000    5    diag
    7      0.960D-04      0.967D-05      -196.14670558    582.496046   -0.00018   -0.00046    0.00000    6    diag
    8      0.111D-04      0.286D-06      -196.14670558    582.495927   -0.00018   -0.00046    0.00000    7    diag
    9      0.490D-06      0.227D-07      -196.14670558    582.495975   -0.00018   -0.00046    0.00000    0    orth

 Final occupancy:  21

 !RKS STATE 1.1 Energy               -196.146705575318
 Nuclear energy                       197.66618863
 One-electron energy                 -654.97329302
 Two-electron energy                  291.24798730
 Density functional                   -30.08758848     B88=-30.08758848
 Virial quotient                       -1.00636922
 !RKS STATE 1.1 Dipole moment          -0.00018112    -0.00046035     0.00000008
 Dipole moment /Debye                  -0.00046033    -0.00117002     0.00000020

 Orbital energies:

         1.1          2.1          3.1          4.1          5.1          6.1          7.1          8.1          9.1         10.1
     -9.892349    -9.875288    -9.875279    -9.875276    -9.875238    -0.694880    -0.569050    -0.569048    -0.569046    -0.432972

        11.1         12.1         13.1         14.1         15.1         16.1         17.1         18.1         19.1         20.1
     -0.359350    -0.359348    -0.359339    -0.314888    -0.314885    -0.281686    -0.281685    -0.281681    -0.243828    -0.243828

        21.1         22.1         23.1
     -0.243823     0.053485     0.110103

 HOMO     21.1    -0.243823 =      -6.6348eV
 LUMO     22.1     0.053485 =       1.4554eV
 LUMO-HOMO         0.297308 =       8.0902eV


 **********************************************************************************************************************************
 DATASETS  * FILE   NREC   LENGTH (MB)   RECORD NAMES
              1      20      155.67       500      610      700      900      950      970     1000      129      960     1100   
                                          VAR    BASINP    GEOM    SYMINP    ZMAT    AOBASIS   BASIS     P2S    ABASIS      S 
                                         1400     1410     1200     1210     1080     1600     1650     1300     1700     1800   
                                           T        V       H0       H01     AOSYM     SMH    MOLCAS    ERIS     OPER     GRID   

              2       5        3.39       700     1000      520     1800     2100   
                                         GEOM     BASIS   MCVARS    GRID      RKS  

 PROGRAMS   *        TOTAL        KS       INT
 CPU TIMES  *        19.55     14.55      4.86
 REAL TIME  *        25.40 SEC
 DISK USED  *       577.52 MB      
 **********************************************************************************************************************************


 PROGRAM * Intrinsic Basis Bonding Analysis (IBBA)          Author: G. Knizia

 Molecular orbitals read from record     2100.2  Type=RKS/CANONICAL (state 1.1)
 Fock matrix read from record            2100.2  Type=RKS/TOTAL (state 1.1)
 Orbital energies read from record       2100.2  Type=RKS/CANONICAL (state 1.1)
 Density matrix read from record         2100.2  Type=RKS/CHARGE (state 1.1)

 Number of core orbitals:           5 (   5 )
 Number of closed-shell orbitals:  16 (  16 )

 Basis set MINAO-AUTO-PP generated.      Number of basis functions:   37 

 Polarized AO type:                A = (O Ot + (1-O)(1-Ot)) P12
 Orthogonalization method:         Symmetric (Loewdin)
 Localization functional:          L = sum[A,i] <i|n_A|i>^4 -> max

 Localization group 1:  21 orbitals, occupancy  2.000
 Iterative localization: IB/PM,    7 iter; Final gradient 0.19E-08

 Bond order analysis:       [THRPRINT= 0.020]

   CEN ATOM   CEN ATOM     WIBERG.BO      RENORM.BO
     1   C  -   3   C       0.997057       0.999863
     1   C  -   2   C       0.997052       0.999846
     1   C  -   5   C       0.997050       0.999850
     1   C  -   4   C       0.997048       0.999849

     2   C  -   1   C       0.997052       0.999846
     2   C  -  15   H       0.967344       0.980019
     2   C  -  16   H       0.967332       0.980017
     2   C  -  17   H       0.967332       0.980017

     3   C  -   1   C       0.997057       0.999863
     3   C  -  10   H       0.967342       0.980016
     3   C  -   9   H       0.967342       0.980016
     3   C  -   6   H       0.967337       0.980027

     4   C  -   1   C       0.997048       0.999849
     4   C  -  11   H       0.967346       0.980021
     4   C  -   7   H       0.967341       0.980023
     4   C  -  12   H       0.967326       0.980022

     5   C  -   1   C       0.997050       0.999850
     5   C  -  14   H       0.967345       0.980020
     5   C  -   8   H       0.967340       0.980022
     5   C  -  13   H       0.967325       0.980021

     6   H  -   3   C       0.967337       0.980027

     7   H  -   4   C       0.967341       0.980023

     8   H  -   5   C       0.967340       0.980022

     9   H  -   3   C       0.967342       0.980016

    10   H  -   3   C       0.967342       0.980016

    11   H  -   4   C       0.967346       0.980021

    12   H  -   4   C       0.967326       0.980022

    13   H  -   5   C       0.967325       0.980021

    14   H  -   5   C       0.967345       0.980020

    15   H  -   2   C       0.967344       0.980019

    16   H  -   2   C       0.967332       0.980017

    17   H  -   2   C       0.967332       0.980017


 Valency analysis:

   CEN ATOM   TOT.VALENCE
     1   C       3.994489
     2   C       3.955121
     3   C       3.955135
     4   C       3.955121
     5   C       3.955121
     6   H       0.987657
     7   H       0.987664
     8   H       0.987664
     9   H       0.987669
    10   H       0.987669
    11   H       0.987671
    12   H       0.987648
    13   H       0.987648
    14   H       0.987671
    15   H       0.987668
    16   H       0.987659
    17   H       0.987658

 Total charge composition:

   CEN ATOM         s          p       ELECTRONS ->P.CHARGE
     1   C       2.92376    2.99670      5.92046    0.07954
     2   C       3.02003    3.33309      6.35313   -0.35313
     3   C       3.02002    3.33305      6.35307   -0.35307
     4   C       3.02003    3.33309      6.35312   -0.35312
     5   C       3.02003    3.33309      6.35312   -0.35312
     6   H       0.88890                 0.88890    0.11110
     7   H       0.88893                 0.88893    0.11107
     8   H       0.88893                 0.88893    0.11107
     9   H       0.88895                 0.88895    0.11105
    10   H       0.88896                 0.88896    0.11104
    11   H       0.88896                 0.88896    0.11104
    12   H       0.88886                 0.88886    0.11114
    13   H       0.88886                 0.88886    0.11114
    14   H       0.88896                 0.88896    0.11104
    15   H       0.88895                 0.88895    0.11105
    16   H       0.88891                 0.88891    0.11109
    17   H       0.88891                 0.88891    0.11109

 Total charge composition, AO contributions:

   CEN ATOM SHL      SPHERICAL COMPONENTS
     1   C  1s       1.99228
     1   C  2s       0.93148
     1   C  2p       0.99890    0.99890    0.99890

     2   C  1s       1.99134
     2   C  2s       1.02869
     2   C  2p       1.04861    1.14222    1.14225

     3   C  1s       1.99134
     3   C  2s       1.02868
     3   C  2p       1.13184    1.05902    1.14219

     4   C  1s       1.99134
     4   C  2s       1.02869
     4   C  2p       1.13182    1.12147    1.07980

     5   C  1s       1.99134
     5   C  2s       1.02869
     5   C  2p       1.13182    1.12148    1.07979

     6   H  1s       0.88890

     7   H  1s       0.88893

     8   H  1s       0.88893

     9   H  1s       0.88895

    10   H  1s       0.88896

    11   H  1s       0.88896

    12   H  1s       0.88886

    13   H  1s       0.88886

    14   H  1s       0.88896

    15   H  1s       0.88895

    16   H  1s       0.88891

    17   H  1s       0.88891

 Summary of localized orbital composition:   [THRPRINT= 0.020]

   ORB  GRP  ORB.ENERGY      CENTERS/CHARGES
     1   1    -9.798179      C  1   2.000
     2   1    -9.765405      C  3   2.000
     3   1    -9.765393      C  2   2.000
     4   1    -9.765391      C  4   2.000
     5   1    -9.765390      C  5   2.000
     6   1    -0.453181      C  5   1.008   C  1   0.965   (other: 0.027)
     7   1    -0.453177      C  4   1.008   C  1   0.965   (other: 0.027)
     8   1    -0.453175      C  3   1.008   C  1   0.965   (other: 0.027)
     9   1    -0.453173      C  2   1.008   C  1   0.965   (other: 0.027)
    10   1    -0.403371      C  2   1.110   H 15   0.881
    11   1    -0.403364      C  3   1.110   H  9   0.881
    12   1    -0.403363      C  3   1.110   H  6   0.881
    13   1    -0.403362      C  3   1.110   H 10   0.881
    14   1    -0.403361      C  4   1.110   H  7   0.881
    15   1    -0.403361      C  4   1.110   H 11   0.881
    16   1    -0.403360      C  5   1.110   H 14   0.881
    17   1    -0.403360      C  5   1.110   H  8   0.881
    18   1    -0.403355      C  2   1.110   H 17   0.881
    19   1    -0.403354      C  2   1.110   H 16   0.881
    20   1    -0.403347      C  4   1.110   H 12   0.881
    21   1    -0.403346      C  5   1.110   H 13   0.881

 Localized orbitals saved to record      2100.2  (orbital set 2)


 **********************************************************************************************************************************
 DATASETS  * FILE   NREC   LENGTH (MB)   RECORD NAMES
              1      20      155.67       500      610      700      900      950      970     1000      129      960     1100   
                                          VAR    BASINP    GEOM    SYMINP    ZMAT    AOBASIS   BASIS     P2S    ABASIS      S 
                                         1400     1410     1200     1210     1080     1600     1650     1300     1700     1800   
                                           T        V       H0       H01     AOSYM     SMH    MOLCAS    ERIS     OPER     GRID   

              2       5        3.53       700     1000      520     1800     2100   
                                         GEOM     BASIS   MCVARS    GRID      RKS  

 PROGRAMS   *        TOTAL      IBBA        KS       INT
 CPU TIMES  *        19.58      0.04     14.55      4.86
 REAL TIME  *        25.53 SEC
 DISK USED  *       577.52 MB      
 **********************************************************************************************************************************
 Molecular orbitals read from record     2100.2  Type=RKS/LOCAL(IBO)  
 Occupation numbers read from record     2100.2  Type=RKS/LOCAL(IBO)  
 Orbital energies read from record       2100.2  Type=RKS/LOCAL(IBO)  
 Redundancy group numbers read from rec  2100.2  Type=RKS/LOCAL(IBO)  

 IBBA/SVP energy=      0.000000000000

        KS-SCF  
   -196.14670558
 **********************************************************************************************************************************
 Molpro calculation terminated
