
 Primary working directories    : /local
 Secondary working directories  : /local
 Wavefunction directory         : /local/
 Main file repository           : /local/

 SHA1      : b4a5b34a9e711420743f49e6833241d17c61fb3c
 NAME      : 2099.9.b4a5b34
 ARCHNAME  : linux/x86_64_openmp
 FC        : /cm/shared/languages/GCC-6.1/bin/gfortran
 BLASLIB   : -lblas
 id        : simonbennie

 Nodes     nprocs
 node34-017    1

 Using customized tuning parameters: mindgm=1; mindgv=20; mindgc=4; mindgr=1; noblas=0; minvec=7
 default implementation of scratch files=df  

 memory,500,m
 geomtyp=xyz
 nosym
 noorient
 geometry={
 C         -1.53233        0.02247        0.00000
 C         -0.00192        0.01421        0.00000
 O          0.37239        1.40356        0.00000
 H          1.34248        1.44036        0.00000
 H         -1.92991       -0.99819        0.00000
 H         -1.90797        0.54382       -0.88653
 H         -1.90797        0.54382        0.88653
 C          0.54303       -0.66466       -1.26580
 C          0.54303       -0.66466        1.26580
 H          0.17836       -0.14752       -2.15943
 H          0.17836       -0.14752        2.15943
 H          0.23752       -1.71600       -1.32280
 H          0.23752       -1.71600        1.32280
 H          1.64084       -0.63767       -1.28032
 H          1.64084       -0.63767        1.28032
 }
 basis={ default,qzvp }
 {ks,LDA,direct;wf,42,1,0}
 {ibba,bonds=1}

 Variables initialized (895), CPU time= 0.00 sec
 Commands  initialized (725), CPU time= 0.01 sec, 591 directives.
 Default parameters read. Elapsed time= 0.14 sec

 Checking input...
 Passed
1


                                         ***  PROGRAM SYSTEM MOLPRO  ***
                                       Copyright, TTI GmbH Stuttgart, 2015
                                    Version 2099.9 linked May 26 2017 16:03:21


 **********************************************************************************************************************************
 LABEL *                                                                                 
  64 bit serial version                                                                  DATE: 12-Jun-17          TIME: 16:52:41  
 **********************************************************************************************************************************

 SHA1:             b4a5b34a9e711420743f49e6833241d17c61fb3c
 **********************************************************************************************************************************
 SETTING GEOMTYP        =    XYZ

 Variable memory set to  500000000 words,  buffer space 

 ZSYMEL=NOSYM

 SETTING BASIS          =    QZVP


 Recomputing integrals since basis changed


 Using spherical harmonics

 Library entry C      S def2-QZVP            selected for orbital group  1
 Library entry C      P def2-QZVP            selected for orbital group  1
 Library entry C      D def2-QZVP            selected for orbital group  1
 Library entry C      F def2-QZVP            selected for orbital group  1
 Library entry C      G def2-QZVP            selected for orbital group  1
 Library entry O      S def2-QZVP            selected for orbital group  2
 Library entry O      P def2-QZVP            selected for orbital group  2
 Library entry O      D def2-QZVP            selected for orbital group  2
 Library entry O      F def2-QZVP            selected for orbital group  2
 Library entry O      G def2-QZVP            selected for orbital group  2
 Library entry H      S def2-QZVP            selected for orbital group  3
 Library entry H      P def2-QZVP            selected for orbital group  3
 Library entry H      D def2-QZVP            selected for orbital group  3
 Library entry H      F def2-QZVP            selected for orbital group  3


 PROGRAM * SEWARD (Integral evaluation for generally contracted gaussian basis sets)     Author: Roland Lindh, 1990

 Geometry written to block  1 of record 700


 Point group  C1  



 ATOMIC COORDINATES

 NR  ATOM    CHARGE       X              Y              Z

   1  C       6.00   -2.895684032    0.042462146    0.000000000
   2  C       6.00   -0.003628274    0.026853008    0.000000000
   3  O       8.00    0.703715112    2.652343999    0.000000000
   4  H       1.00    2.536919528    2.721885921    0.000000000
   5  H       1.00   -3.647001345   -1.886305720    0.000000000
   6  H       1.00   -3.605540754    1.027670861   -1.675298901
   7  H       1.00   -3.605540754    1.027670861    1.675298901
   8  C       6.00    1.026177977   -1.256025366   -2.392015328
   9  C       6.00    1.026177977   -1.256025366    2.392015328
  10  H       1.00    0.337051552   -0.278772398   -4.080731285
  11  H       1.00    0.337051552   -0.278772398    4.080731285
  12  H       1.00    0.448847749   -3.242770030   -2.499729718
  13  H       1.00    0.448847749   -3.242770030    2.499729718
  14  H       1.00    3.100738214   -1.205021658   -2.419454152
  15  H       1.00    3.100738214   -1.205021658    2.419454152

 Bond lengths in Bohr (Angstrom)

 1-2  2.892097881  1-5  2.069933136  1-6  2.069096224  1-7  2.069096224  2-3  2.719106031
     ( 1.530432290)     ( 1.095361444)     ( 1.094918569)     ( 1.094918569)     ( 1.438888946)

  2- 8  2.903104402   2- 9  2.903104402   3- 4  1.834522965   8-10  2.069222119   8-12  2.071730422
       ( 1.536256691)       ( 1.536256691)       ( 0.970787746)       ( 1.094985190)       ( 1.096312526)

  8-14  2.075368508   9-11  2.069222119   9-13  2.071730422   9-15  2.075368508
       ( 1.098237719)       ( 1.094985190)       ( 1.096312526)       ( 1.098237719)

 Bond angles

  1-2-3  104.76902697   1-2-8  110.92255387   1-2-9  110.92255387   2-1-5  110.97328220

  2- 1- 6  110.22090701   2- 1- 7  110.22090701   2- 3- 4  107.25071562   2- 8-10  110.21836376

  2- 8-12  111.57747468   2- 8-14  110.77023896   2- 9-11  110.21836376   2- 9-13  111.57747468

  2- 9-15  110.77023896   3- 2- 8  109.53648747   3- 2- 9  109.53648747   5- 1- 6  108.61190457

  5- 1- 7  108.61190457   6- 1- 7  108.12870271   8- 2- 9  110.96453384  10- 8-12  108.52192632

 10- 8-14  108.08997829  11- 9-13  108.52192632  11- 9-15  108.08997829  12- 8-14  107.54424578

 13- 9-15  107.54424578

 NUCLEAR CHARGE:                   42
 NUMBER OF PRIMITIVE AOS:         840
 NUMBER OF SYMMETRY AOS:          715
 NUMBER OF CONTRACTIONS:          585   ( 585A   )
 NUMBER OF CORE ORBITALS:           5   (   5A   )
 NUMBER OF VALENCE ORBITALS:       30   (  30A   )


 NUCLEAR REPULSION ENERGY  198.77359127


 Eigenvalues of metric

         1 0.447E-04 0.459E-04 0.470E-04 0.743E-04 0.823E-04 0.917E-04 0.943E-04 0.107E-03


 Contracted 2-electron integrals neglected if value below      1.0D-12
 AO integral compression algorithm  1   Integral accuracy      1.0D-12

     40752.906 MB (compressed) written to integral file ( 33.4%)


 NUMBER OF SORTED TWO-ELECTRON INTEGRALS:14689922715.     BUFFER LENGTH:  32768
 NUMBER OF SEGMENTS: 184  SEGMENT LENGTH:   79999773      RECORD LENGTH: 262144

 Memory used in sort:      80.29 MW

 SORT1 READ 15248138275. AND WROTE 10587813328. INTEGRALS IN  60679 RECORDS. CPU TIME:   191.45 SEC, REAL TIME:  3504.08 SEC
 SORT2 READ 10587813328. AND WROTE 14689922715. INTEGRALS IN 155460 RECORDS. CPU TIME:   335.46 SEC, REAL TIME:  7692.48 SEC

 FILE SIZES:   FILE 1: 40795.6 MBYTE,  FILE 4:127253.1 MBYTE,   TOTAL: 168048.8 MBYTE

 OPERATOR DM      FOR CENTER  0  COORDINATES:    0.000000    0.000000    0.000000


 **********************************************************************************************************************************
 DATASETS  * FILE   NREC   LENGTH (MB)   RECORD NAMES
              1      19    37754.71       500      610      700      900      950      970     1000      129      960     1100   
                                          VAR    BASINP    GEOM    SYMINP    ZMAT    AOBASIS   BASIS     P2S    ABASIS      S 
                                         1400     1410     1200     1210     1080     1600     1650     1300     1700   
                                           T        V       H0       H01     AOSYM     SMH    MOLCAS    ERIS     OPER   

 PROGRAMS   *        TOTAL       INT
 CPU TIMES  *      1186.71   1186.56
 REAL TIME  *     12211.28 SEC
 DISK USED  *       168.05 GB      
 **********************************************************************************************************************************

 Density functional group LDA=DIRAC+VWN5
 Functional: DIRAC(Automatically generated (new) DIRAC)                        Gradient terms: 0
 Functional: VWN5(Automatically generated (new) VWN5)                          Gradient terms: 0
 Use grid at  1800.2

 Functional: DIRAC                     Factor:  1.0000
 Functional: VWN5                      Factor:  1.0000

 Generated new metagrid on record  1800.2 with target accuracy 1.0D-06 and 58228 points in CPU time    1.7
 Computed new grid on record 1800.1 in CPU time    1.9
  246259 words reserved for DFT integration

 PROGRAM * RKS-SCF (Restricted closed shell Kohn-Sham)     Authors: W. Meyer, H.-J. Werner, P.J. Knowles, 1993

 NUMBER OF ELECTRONS:      21+   21-    SPACE SYMMETRY=1    SPIN SYMMETRY: Singlet 
 CONVERGENCE THRESHOLDS:    1.00E-05 (Density)    1.00E-06 (Energy)
 MAX. NUMBER OF ITERATIONS:       60
 INTERPOLATION TYPE:            DIIS
 INTERPOLATION STEPS:              2 (START)      1 (STEP)
 LEVEL SHIFTS:                  0.00 (CLOSED)  0.00 (OPEN) 



 Use fine grid record 1800.2 for energy threshold  1.0D-06
 Orbital guess generated from atomic densities. Full valence occupancy:   21

 Molecular orbital dump at record        2100.2

 Initial occupancy:  21

 ITERATION    DDIFF          GRAD             ENERGY        2-EL.EN.            DIPOLE MOMENTS         DIIS   ORB.
    1      0.000D+00      0.000D+00      -231.39371653    641.128064    0.71250   -0.81122    0.00000    0    start
    2      0.000D+00      0.546D-02      -230.67439835    584.515760   -0.71900    0.26366    0.00000    1    diag
    3      0.143D-01      0.936D-02      -231.72803063    623.943559    0.44972   -0.75271    0.00000    2    diag
    4      0.137D-01      0.135D-02      -231.74203160    621.260697    0.33676   -0.39146    0.00000    3    diag
    5      0.623D-03      0.620D-03      -231.74531089    621.103492    0.32482   -0.56186    0.00000    4    diag
    6      0.189D-03      0.185D-03      -231.74562696    621.302451    0.33338   -0.52218    0.00000    5    diag
    7      0.500D-04      0.538D-04      -231.74565152    621.298578    0.33837   -0.51962    0.00000    6    diag
    8      0.111D-04      0.766D-05      -231.74565222    621.319850    0.33636   -0.52541    0.00000    7    diag
    9      0.418D-05      0.229D-05      -231.74565220    621.319110    0.33777   -0.52219    0.00000    0    orth

 Final occupancy:  21

 !RKS STATE 1.1 Energy               -231.745652203198
 Nuclear energy                       198.77359127
 One-electron energy                 -709.34176316
 Two-electron energy                  310.65955493
 Density functional                   -31.83703524     DIRAC=-29.18842848 VWN5= -2.64860676
 Virial quotient                       -1.00792171
 !RKS STATE 1.1 Dipole moment           0.33776756    -0.52219347     0.00000000
 Dipole moment /Debye                   0.85846327    -1.32719648     0.00000000

 Orbital energies:

         1.1          2.1          3.1          4.1          5.1          6.1          7.1          8.1          9.1         10.1
    -18.604232    -9.846463    -9.774166    -9.774165    -9.768971    -0.928189    -0.714018    -0.623448    -0.622801    -0.516020

        11.1         12.1         13.1         14.1         15.1         16.1         17.1         18.1         19.1         20.1
     -0.443830    -0.408975    -0.406441    -0.369016    -0.355461    -0.338686    -0.323487    -0.315558    -0.308423    -0.283266

        21.1         22.1         23.1
     -0.232257    -0.016476     0.023147

 HOMO     21.1    -0.232257 =      -6.3200eV
 LUMO     22.1    -0.016476 =      -0.4483eV
 LUMO-HOMO         0.215781 =       5.8717eV


 **********************************************************************************************************************************
 DATASETS  * FILE   NREC   LENGTH (MB)   RECORD NAMES
              1      20    37756.57       500      610      700      900      950      970     1000      129      960     1100   
                                          VAR    BASINP    GEOM    SYMINP    ZMAT    AOBASIS   BASIS     P2S    ABASIS      S 
                                         1400     1410     1200     1210     1080     1600     1650     1300     1700     1800   
                                           T        V       H0       H01     AOSYM     SMH    MOLCAS    ERIS     OPER     GRID   

              2       5        9.95       700     1000      520     1800     2100   
                                         GEOM     BASIS   MCVARS    GRID      RKS  

 PROGRAMS   *        TOTAL        KS       INT
 CPU TIMES  *      2160.29    973.58   1186.56
 REAL TIME  *     23676.98 SEC
 DISK USED  *       168.05 GB      
 **********************************************************************************************************************************


 PROGRAM * Intrinsic Basis Bonding Analysis (IBBA)          Author: G. Knizia

 Molecular orbitals read from record     2100.2  Type=RKS/CANONICAL (state 1.1)
 Fock matrix read from record            2100.2  Type=RKS/TOTAL (state 1.1)
 Orbital energies read from record       2100.2  Type=RKS/CANONICAL (state 1.1)
 Density matrix read from record         2100.2  Type=RKS/CHARGE (state 1.1)

 Number of core orbitals:           5 (   5 )
 Number of closed-shell orbitals:  16 (  16 )

 Basis set MINAO-AUTO-PP generated.      Number of basis functions:   35 

 Polarized AO type:                A = (O Ot + (1-O)(1-Ot)) P12
 Orthogonalization method:         Symmetric (Loewdin)
 Localization functional:          L = sum[A,i] <i|n_A|i>^4 -> max

 Localization group 1:  21 orbitals, occupancy  2.000
 Iterative localization: IB/PM,    7 iter; Final gradient 0.60E-08

 Bond order analysis:       [THRPRINT= 0.020]

   CEN ATOM   CEN ATOM     WIBERG.BO      RENORM.BO
     1   C  -   2   C       0.996093       0.991797
     1   C  -   5   H       0.954839       0.985603
     1   C  -   6   H       0.949829       0.979248
     1   C  -   7   H       0.949829       0.979248

     2   C  -   1   C       0.996093       0.991797
     2   C  -   9   C       0.995100       0.972925
     2   C  -   8   C       0.995100       0.972925
     2   C  -   3   O       0.936545       0.939178

     3   O  -   2   C       0.936545       0.939178
     3   O  -   4   H       0.854553       0.971891
     3   O  -   9   C       0.031227       0.016031
     3   O  -   8   C       0.031227       0.016031

     4   H  -   3   O       0.854553       0.971891

     5   H  -   1   C       0.954839       0.985603

     6   H  -   1   C       0.949829       0.979248

     7   H  -   1   C       0.949829       0.979248

     8   C  -   2   C       0.995100       0.972925
     8   C  -  14   H       0.954317       0.980053
     8   C  -  10   H       0.950425       0.979042
     8   C  -  12   H       0.949816       0.978774
     8   C  -   3   O       0.031227       0.016031

     9   C  -   2   C       0.995100       0.972925
     9   C  -  15   H       0.954317       0.980053
     9   C  -  11   H       0.950425       0.979042
     9   C  -  13   H       0.949816       0.978774
     9   C  -   3   O       0.031227       0.016031

    10   H  -   8   C       0.950425       0.979042

    11   H  -   9   C       0.950425       0.979042

    12   H  -   8   C       0.949816       0.978774

    13   H  -   9   C       0.949816       0.978774

    14   H  -   8   C       0.954317       0.980053

    15   H  -   9   C       0.954317       0.980053


 Valency analysis:

   CEN ATOM   TOT.VALENCE
     1   C       3.918950
     2   C       3.935965
     3   O       1.931025
     4   H       0.877008
     5   H       0.976698
     6   H       0.973965
     7   H       0.973965
     8   C       3.921843
     9   C       3.921843
    10   H       0.973977
    11   H       0.973977
    12   H       0.975828
    13   H       0.975828
    14   H       0.978540
    15   H       0.978540

 Total charge composition:

   CEN ATOM         s          p       ELECTRONS ->P.CHARGE
     1   C       3.03973    3.42721      6.46694   -0.46694
     2   C       2.92967    2.82746      5.75713    0.24287
     3   O       3.64383    4.92295      8.56677   -0.56677
     4   H       0.64930                 0.64930    0.35070
     5   H       0.84735                 0.84735    0.15265
     6   H       0.83865                 0.83865    0.16135
     7   H       0.83865                 0.83865    0.16135
     8   C       3.04665    3.43424      6.48089   -0.48089
     9   C       3.04665    3.43424      6.48089   -0.48089
    10   H       0.83868                 0.83868    0.16132
    11   H       0.83868                 0.83868    0.16132
    12   H       0.84453                 0.84453    0.15547
    13   H       0.84453                 0.84453    0.15547
    14   H       0.85351                 0.85351    0.14649
    15   H       0.85351                 0.85351    0.14649

 Total charge composition, AO contributions:

   CEN ATOM SHL      SPHERICAL COMPONENTS
     1   C  1s       1.99209
     1   C  2s       1.04765
     1   C  2p       1.04872    1.18286    1.19563

     2   C  1s       1.99364
     2   C  2s       0.93603
     2   C  2p       1.01292    0.79865    1.01589

     3   O  1s       1.99739
     3   O  2s       1.64644
     3   O  2p       1.48225    1.49004    1.95066

     4   H  1s       0.64930

     5   H  1s       0.84735

     6   H  1s       0.83865

     7   H  1s       0.83865

     8   C  1s       1.99218
     8   C  2s       1.05448
     8   C  2p       1.16357    1.16307    1.10759

     9   C  1s       1.99218
     9   C  2s       1.05448
     9   C  2p       1.16357    1.16307    1.10759

    10   H  1s       0.83868

    11   H  1s       0.83868

    12   H  1s       0.84453

    13   H  1s       0.84453

    14   H  1s       0.85351

    15   H  1s       0.85351

 Summary of localized orbital composition:   [THRPRINT= 0.020]

   ORB  GRP  ORB.ENERGY      CENTERS/CHARGES
     1   1   -18.456526      O  3   2.000
     2   1    -9.758938      C  2   2.000
     3   1    -9.664289      C  9   2.000
     4   1    -9.664289      C  8   2.000
     5   1    -9.658344      C  1   2.000
     6   1    -0.701069      O  3   1.354   H  4   0.636
     7   1    -0.663606      O  3   1.278   C  2   0.702
     8   1    -0.524053      C  9   1.007   C  2   0.976
     9   1    -0.524053      C  8   1.007   C  2   0.976
    10   1    -0.523440      C  1   0.990   C  2   0.984   (other: 0.026)
    11   1    -0.503592      O  3   1.980   (other: 0.020)
    12   1    -0.455025      C  8   1.150   H 12   0.833
    13   1    -0.455025      C  9   1.150   H 13   0.833
    14   1    -0.453915      C  9   1.141   H 15   0.845
    15   1    -0.453915      C  8   1.141   H 14   0.845
    16   1    -0.450818      C  1   1.145   H  5   0.839
    17   1    -0.448902      C  8   1.159   H 10   0.829
    18   1    -0.448902      C  9   1.159   H 11   0.829
    19   1    -0.444343      C  1   1.158   H  7   0.829
    20   1    -0.444343      C  1   1.158   H  6   0.829
    21   1    -0.260485      O  3   1.951   (other: 0.049)

 Localized orbitals saved to record      2100.2  (orbital set 2)


 **********************************************************************************************************************************
 DATASETS  * FILE   NREC   LENGTH (MB)   RECORD NAMES
              1      20    37756.57       500      610      700      900      950      970     1000      129      960     1100   
                                          VAR    BASINP    GEOM    SYMINP    ZMAT    AOBASIS   BASIS     P2S    ABASIS      S 
                                         1400     1410     1200     1210     1080     1600     1650     1300     1700     1800   
                                           T        V       H0       H01     AOSYM     SMH    MOLCAS    ERIS     OPER     GRID   

              2       5       12.70       700     1000      520     1800     2100   
                                         GEOM     BASIS   MCVARS    GRID      RKS  

 PROGRAMS   *        TOTAL      IBBA        KS       INT
 CPU TIMES  *      2160.75      0.46    973.58   1186.56
 REAL TIME  *     23677.77 SEC
 DISK USED  *       168.05 GB      
 **********************************************************************************************************************************
 Molecular orbitals read from record     2100.2  Type=RKS/LOCAL(IBO)  
 Occupation numbers read from record     2100.2  Type=RKS/LOCAL(IBO)  
 Orbital energies read from record       2100.2  Type=RKS/LOCAL(IBO)  
 Redundancy group numbers read from rec  2100.2  Type=RKS/LOCAL(IBO)  

 IBBA/QZVP energy=      0.000000000000

        KS-SCF  
   -231.74565220
 **********************************************************************************************************************************
 Molpro calculation terminated
