
 Primary working directories    : /tmp/sb13343
 Secondary working directories  : /tmp/sb13343
 Wavefunction directory         : /panfs/panasas01/chem/sb13343/wfu/
 Main file repository           : /tmp/sb13343/

 SHA1      : b4a5b34a9e711420743f49e6833241d17c61fb3c
 NAME      : 2099.9.b4a5b34
 ARCHNAME  : linux/x86_64_openmp
 FC        : /cm/shared/languages/GCC-6.1/bin/gfortran
 BLASLIB   : -lblas
 id        : simonbennie

 Nodes     nprocs
 node32-029    1

 Using customized tuning parameters: mindgm=1; mindgv=20; mindgc=4; mindgr=1; noblas=0; minvec=7
 default implementation of scratch files=df  

 memory,500,m
 geomtyp=xyz
 nosym
 noorient
 geometry={
 C          0.00000        0.00000        0.00000
 H          0.00000        0.00000        1.10056
 C          1.46209        0.00000       -0.46855
 C         -0.73105       -1.26621       -0.46855
 C         -0.73105        1.26621       -0.46855
 H          1.52118        0.00000       -1.56505
 H         -0.76059       -1.31738       -1.56505
 H         -0.76059        1.31738       -1.56505
 H          1.99755        0.88622       -0.10723
 H          1.99755       -0.88622       -0.10723
 H         -0.23129       -2.17304       -0.10723
 H         -1.76626       -1.28682       -0.10723
 H         -1.76626        1.28682       -0.10723
 H         -0.23129        2.17304       -0.10723
 }
 basis={ default,svp }
 {uks,B3LYP5,direct;wf,34,1,0}
 {ibba,bonds=1}

 Variables initialized (895), CPU time= 0.01 sec
 Commands  initialized (725), CPU time= 0.01 sec, 591 directives.
 Default parameters read. Elapsed time= 0.09 sec

 Checking input...
 Passed
1


                                         ***  PROGRAM SYSTEM MOLPRO  ***
                                       Copyright, TTI GmbH Stuttgart, 2015
                                    Version 2099.9 linked May 26 2017 16:03:21


 **********************************************************************************************************************************
 LABEL *                                                                                 
  64 bit serial version                                                                  DATE: 09-Jun-17          TIME: 00:04:45  
 **********************************************************************************************************************************

 SHA1:             b4a5b34a9e711420743f49e6833241d17c61fb3c
 **********************************************************************************************************************************
 SETTING GEOMTYP        =    XYZ

 Variable memory set to  500000000 words,  buffer space 

 ZSYMEL=NOSYM

 SETTING BASIS          =    SVP


 Recomputing integrals since basis changed


 Using spherical harmonics

 Library entry C      S def2-SVP             selected for orbital group  1
 Library entry C      P def2-SVP             selected for orbital group  1
 Library entry C      D def2-SVP             selected for orbital group  1
 Library entry H      S def2-SVP             selected for orbital group  2
 Library entry H      P def2-SVP             selected for orbital group  2


 PROGRAM * SEWARD (Integral evaluation for generally contracted gaussian basis sets)     Author: Roland Lindh, 1990

 Geometry written to block  1 of record 700


 Point group  C1  



 ATOMIC COORDINATES

 NR  ATOM    CHARGE       X              Y              Z

   1  C       6.00    0.000000000    0.000000000    0.000000000
   2  H       1.00    0.000000000    0.000000000    2.079756984
   3  C       6.00    2.762949669    0.000000000   -0.885431176
   4  C       6.00   -1.381484283   -2.392790116   -0.885431176
   5  C       6.00   -1.381484283    2.392790116   -0.885431176
   6  H       1.00    2.874613586    0.000000000   -2.957515871
   7  H       1.00   -1.437306793   -2.489487402   -2.957515871
   8  H       1.00   -1.437306793    2.489487402   -2.957515871
   9  H       1.00    3.774822420    1.674713086   -0.202635332
  10  H       1.00    3.774822420   -1.674713086   -0.202635332
  11  H       1.00   -0.437074755   -4.106450458   -0.202635332
  12  H       1.00   -3.337747665   -2.431737372   -0.202635332
  13  H       1.00   -3.337747665    2.431737372   -0.202635332
  14  H       1.00   -0.437074755    4.106450458   -0.202635332

 Bond lengths in Bohr (Angstrom)

 1-2  2.079756984  1-3  2.901358172  1-4  2.901367218  1-5  2.901367218  3-6  2.075091279
     ( 1.100560000)     ( 1.535332625)     ( 1.535337412)     ( 1.535337412)     ( 1.098091015)

  3- 9  2.072380406   3-10  2.072380406   4- 7  2.075090722   4-11  2.072378172   4-12  2.072364222
       ( 1.096656483)       ( 1.096656483)       ( 1.098090721)       ( 1.096655301)       ( 1.096647919)

  5- 8  2.075090722   5-13  2.072364222   5-14  2.072378172
       ( 1.098090721)       ( 1.096647919)       ( 1.096655301)

 Bond angles

  1- 3- 6  110.85354902   1- 3- 9  111.37220114   1- 3-10  111.37220114   1- 4- 7  110.85320625

  1- 4-11  111.37204414   1- 4-12  111.37216555   1- 5- 8  110.85320625   1- 5-13  111.37216555

  1- 5-14  111.37204414   2- 1- 3  107.76888332   2- 1- 4  107.76882608   2- 1- 5  107.76882608

  3-1-4  111.11870751   3-1-5  111.11870751   4-1-5  111.11845005   6-3-9  107.62119374

  6- 3-10  107.62119374   7- 4-11  107.62125572   7- 4-12  107.62162102   8- 5-13  107.62162102

  8- 5-14  107.62125572   9- 3-10  107.82352924  11- 4-12  107.82360822  13- 5-14  107.82360822

 NUCLEAR CHARGE:                   34
 NUMBER OF PRIMITIVE AOS:         170
 NUMBER OF SYMMETRY AOS:          166
 NUMBER OF CONTRACTIONS:          106   ( 106A   )
 NUMBER OF CORE ORBITALS:           4   (   4A   )
 NUMBER OF VALENCE ORBITALS:       26   (  26A   )


 NUCLEAR REPULSION ENERGY  134.07051350


 Eigenvalues of metric

         1 0.225E-02 0.614E-02 0.614E-02 0.233E-01 0.256E-01 0.268E-01 0.268E-01 0.277E-01


 Contracted 2-electron integrals neglected if value below      1.0D-11
 AO integral compression algorithm  1   Integral accuracy      1.0D-11

     64.750 MB (compressed) written to integral file ( 46.7%)


 NUMBER OF SORTED TWO-ELECTRON INTEGRALS:   16082956.     BUFFER LENGTH:  32768
 NUMBER OF SEGMENTS:   2  SEGMENT LENGTH:   15997996      RECORD LENGTH: 524288

 Memory used in sort:      16.56 MW

 SORT1 READ    17384690. AND WROTE    14795173. INTEGRALS IN     44 RECORDS. CPU TIME:     0.26 SEC, REAL TIME:     0.55 SEC
 SORT2 READ    14795173. AND WROTE    16082956. INTEGRALS IN    247 RECORDS. CPU TIME:     0.46 SEC, REAL TIME:     0.61 SEC

 FILE SIZES:   FILE 1:    95.4 MBYTE,  FILE 4:   184.6 MBYTE,   TOTAL:    279.9 MBYTE

 OPERATOR DM      FOR CENTER  0  COORDINATES:    0.000000    0.000000    0.000000


 **********************************************************************************************************************************
 DATASETS  * FILE   NREC   LENGTH (MB)   RECORD NAMES
              1      19       87.57       500      610      700      900      950      970     1000      129      960     1100   
                                          VAR    BASINP    GEOM    SYMINP    ZMAT    AOBASIS   BASIS     P2S    ABASIS      S 
                                         1400     1410     1200     1210     1080     1600     1650     1300     1700   
                                           T        V       H0       H01     AOSYM     SMH    MOLCAS    ERIS     OPER   

 PROGRAMS   *        TOTAL       INT
 CPU TIMES  *         3.10      2.96
 REAL TIME  *         4.11 SEC
 DISK USED  *       280.45 MB      
 **********************************************************************************************************************************

 Density functional group B3LYP5=B88+DIRAC+LYP+VWN5
 Functional: B88(Automatically generated (new) B88)                            Gradient terms: 1
 Functional: DIRAC(Automatically generated (new) DIRAC)                        Gradient terms: 0
 Functional: LYP(Automatically generated (new) LYP)                            Gradient terms: 1
 Functional: VWN5(Automatically generated (new) VWN5)                          Gradient terms: 0
 Use grid at  1800.2


 Exact exchange will be calculated, factor:  0.2000

 Functional: B88                       Factor:  0.7200
 Functional: DIRAC                     Factor:  0.0800
 Functional: LYP                       Factor:  0.8100
 Functional: VWN5                      Factor:  0.1900

 Generated new metagrid on record  1800.2 with target accuracy 1.0D-06 and 45620 points in CPU time    1.1
 Computed new grid on record 1800.1 in CPU time    1.3
   88342 words reserved for DFT integration

 PROGRAM * UKS-SCF (Unrestricted Kohn-Sham)     Authors: W. Meyer, H.-J. Werner, P.J. Knowles, 1993

 NUMBER OF ELECTRONS:      17+   17-    SPACE SYMMETRY=1    SPIN SYMMETRY: Singlet 
 CONVERGENCE THRESHOLDS:    1.00E-05 (Density)    1.00E-06 (Energy)
 MAX. NUMBER OF ITERATIONS:       60
 INTERPOLATION TYPE:            DIIS
 INTERPOLATION STEPS:              2 (START)      1 (STEP)
 LEVEL SHIFTS:                 -0.20 (ALPHA)  -0.20 (BETA) 



 Use fine grid record 1800.2 for energy threshold  1.0D-06
 Orbital guess generated from atomic densities. Full valence occupancy:   17

 Molecular orbital dump at record        2200.2

 Initial alpha occupation  17
 Initial beta  occupation  17

 ITERATION    DDIFF          GRAD             ENERGY        2-EL.EN.            DIPOLE MOMENTS         DIIS
    1      0.000D+00      0.000D+00      -158.02575355    421.610629   -0.00012   -0.00000   -0.01531    0
    2      0.116D-01      0.542D-02      -158.19510605    405.650507   -0.00019   -0.00000    0.00239    1
    3      0.338D-02      0.214D-02      -158.21867812    409.340103   -0.00019   -0.00000    0.03700    2
    4      0.107D-02      0.248D-03      -158.21944876    409.170612   -0.00021   -0.00000    0.03519    3
    5      0.614D-03      0.980D-04      -158.21960632    409.125347   -0.00022   -0.00000    0.03675    4
    6      0.270D-03      0.328D-04      -158.21962478    409.099057   -0.00022   -0.00000    0.03853    5
    7      0.548D-04      0.842D-05      -158.21962575    409.099522   -0.00022   -0.00000    0.03691    6
    8      0.136D-04      0.198D-05      -158.21962582    409.099054   -0.00022   -0.00000    0.03749    6
    9      0.409D-05      0.515D-06      -158.21962582    409.099464   -0.00022   -0.00000    0.03736    6
   10      0.611D-06      0.131D-06      -158.21962582    409.099136   -0.00022   -0.00000    0.03738    6

 Final alpha occupancy:  17
 Final beta  occupancy:  17

 !UKS STATE 1.1 Energy               -158.219625822914
 Nuclear energy                       134.07051350
 One-electron energy                 -476.39667655
 Two-electron energy                  204.54956799
 Density functional                   -20.44303076     B88=-24.22039359 DIRAC=-21.78427547 LYP= -1.06796584 VWN5= -2.08712108
 Virial quotient                       -1.01292380
 !UKS STATE 1.1 Dipole moment          -0.00022273    -0.00000000     0.03737643
 Dipole moment /Debye                  -0.00056608    -0.00000000     0.09499519

 Orbital energies for positive spin:

         1.1          2.1          3.1          4.1          5.1          6.1          7.1          8.1          9.1         10.1
    -10.182503   -10.169455   -10.169444   -10.169420    -0.788773    -0.669528    -0.669526    -0.549415    -0.457058    -0.425560

        11.1         12.1         13.1         14.1         15.1         16.1         17.1         18.1         19.1
     -0.425552    -0.378200    -0.378194    -0.358513    -0.324956    -0.324955    -0.317851     0.054202     0.100146

 Orbital energies for negative spin:

         1.1          2.1          3.1          4.1          5.1          6.1          7.1          8.1          9.1         10.1
    -10.182503   -10.169455   -10.169444   -10.169420    -0.788773    -0.669528    -0.669526    -0.549415    -0.457058    -0.425560

        11.1         12.1         13.1         14.1         15.1         16.1         17.1         18.1         19.1
     -0.425552    -0.378200    -0.378194    -0.358513    -0.324956    -0.324955    -0.317851     0.054202     0.100146

 HOMO     17.1    -0.317851 =      -8.6492eV
 LUMO     18.1     0.054202 =       1.4749eV
 LUMO-HOMO         0.372052 =      10.1241eV

 EXPECTATION VALUE OF S**2:            -0.00000000

 Natural orbitals saved to record    2200.2 (Orbital set 3)

 Orbital spaces for UNO-CAS (Min. occupation: 0.020  Max. occupation: 1.980):

 Closed:       17
 Active:        0


 **********************************************************************************************************************************
 DATASETS  * FILE   NREC   LENGTH (MB)   RECORD NAMES
              1      20       89.03       500      610      700      900      950      970     1000      129      960     1100   
                                          VAR    BASINP    GEOM    SYMINP    ZMAT    AOBASIS   BASIS     P2S    ABASIS      S 
                                         1400     1410     1200     1210     1080     1600     1650     1300     1700     1800   
                                           T        V       H0       H01     AOSYM     SMH    MOLCAS    ERIS     OPER     GRID   

              2       5        3.45       700     1000      520     1800     2200   
                                         GEOM     BASIS   MCVARS    GRID      UKS  

 PROGRAMS   *        TOTAL       UKS       INT
 CPU TIMES  *        22.32     19.22      2.96
 REAL TIME  *        24.20 SEC
 DISK USED  *       280.45 MB      
 **********************************************************************************************************************************


 PROGRAM * Intrinsic Basis Bonding Analysis (IBBA)          Author: G. Knizia

 Molecular orbitals read from record     2200.2  Type=UKS/ALPHA (state 1.1)
 Fock matrix read from record            2200.2  Type=UKS/TOTAL (state 1.1)
 Orbital energies read from record       2200.2  Type=UKS/ALPHA (state 1.1)
 Density matrix read from record         2200.2  Type=UKS/CHARGE (state 1.1)

 Number of core orbitals:           4 (   4 )
 Number of closed-shell orbitals:  13 (  13 )

 Basis set MINAO-AUTO-PP generated.      Number of basis functions:   30 

 Polarized AO type:                A = (O Ot + (1-O)(1-Ot)) P12
 Orthogonalization method:         Symmetric (Loewdin)
 Localization functional:          L = sum[A,i] <i|n_A|i>^4 -> max

 Localization group 1:  17 orbitals, occupancy  2.000
 Iterative localization: IB/PM,    7 iter; Final gradient 0.63E-09

 Bond order analysis:       [THRPRINT= 0.020]

   CEN ATOM   CEN ATOM     WIBERG.BO      RENORM.BO
     1   C  -   3   C       1.013463       1.009580
     1   C  -   4   C       1.013454       1.009568
     1   C  -   5   C       1.013454       1.009568
     1   C  -   2   H       0.936099       0.957080

     2   H  -   1   C       0.936099       0.957080

     3   C  -   1   C       1.013463       1.009580
     3   C  -   9   H       0.966629       0.984000
     3   C  -  10   H       0.966629       0.984000
     3   C  -   6   H       0.964969       0.978898

     4   C  -   1   C       1.013454       1.009568
     4   C  -  11   H       0.966636       0.984003
     4   C  -  12   H       0.966623       0.984004
     4   C  -   7   H       0.964960       0.978895

     5   C  -   1   C       1.013454       1.009568
     5   C  -  14   H       0.966636       0.984003
     5   C  -  13   H       0.966623       0.984004
     5   C  -   8   H       0.964960       0.978895

     6   H  -   3   C       0.964969       0.978898

     7   H  -   4   C       0.964960       0.978895

     8   H  -   5   C       0.964960       0.978895

     9   H  -   3   C       0.966629       0.984000

    10   H  -   3   C       0.966629       0.984000

    11   H  -   4   C       0.966636       0.984003

    12   H  -   4   C       0.966623       0.984004

    13   H  -   5   C       0.966623       0.984004

    14   H  -   5   C       0.966636       0.984003


 Valency analysis:

   CEN ATOM   TOT.VALENCE
     1   C       3.982860
     2   H       0.987168
     3   C       3.946836
     4   C       3.946820
     5   C       3.946820
     6   H       0.985769
     7   H       0.985760
     8   H       0.985760
     9   H       0.984733
    10   H       0.984733
    11   H       0.984738
    12   H       0.984724
    13   H       0.984724
    14   H       0.984738

 Total charge composition:

   CEN ATOM         s          p       ELECTRONS ->P.CHARGE
     1   C       2.95032    3.11717      6.06749   -0.06749
     2   H       0.88672                 0.88672    0.11328
     3   C       3.01967    3.36202      6.38168   -0.38168
     4   C       3.01967    3.36206      6.38173   -0.38173
     5   C       3.01967    3.36206      6.38173   -0.38173
     6   H       0.88070                 0.88070    0.11930
     7   H       0.88067                 0.88067    0.11933
     8   H       0.88067                 0.88067    0.11933
     9   H       0.87644                 0.87644    0.12356
    10   H       0.87644                 0.87644    0.12356
    11   H       0.87646                 0.87646    0.12354
    12   H       0.87640                 0.87640    0.12360
    13   H       0.87640                 0.87640    0.12360
    14   H       0.87646                 0.87646    0.12354

 Total charge composition, AO contributions:

   CEN ATOM SHL      SPHERICAL COMPONENTS
     1   C  1s       1.99172
     1   C  2s       0.95860
     1   C  2p       1.00609    1.00609    1.10498

     2   H  1s       0.88672

     3   C  1s       1.99113
     3   C  2s       1.02853
     3   C  2p       1.06583    1.15400    1.14219

     4   C  1s       1.99113
     4   C  2s       1.02854
     4   C  2p       1.13198    1.08785    1.14223

     5   C  1s       1.99113
     5   C  2s       1.02854
     5   C  2p       1.13198    1.08785    1.14223

     6   H  1s       0.88070

     7   H  1s       0.88067

     8   H  1s       0.88067

     9   H  1s       0.87644

    10   H  1s       0.87644

    11   H  1s       0.87646

    12   H  1s       0.87640

    13   H  1s       0.87640

    14   H  1s       0.87646

 Summary of localized orbital composition:   [THRPRINT= 0.020]

   ORB  GRP  ORB.ENERGY      CENTERS/CHARGES
     1   1   -10.079557      C  1   2.000
     2   1   -10.056079      C  3   2.000
     3   1   -10.056063      C  4   2.000
     4   1   -10.056063      C  5   2.000
     5   1    -0.547017      C  3   1.007   C  1   0.977
     6   1    -0.547012      C  4   1.007   C  1   0.977
     7   1    -0.547012      C  5   1.007   C  1   0.977
     8   1    -0.487790      C  3   1.122   H 10   0.869
     9   1    -0.487790      C  3   1.122   H  9   0.869
    10   1    -0.487786      C  4   1.122   H 11   0.870
    11   1    -0.487786      C  5   1.122   H 14   0.870
    12   1    -0.487781      C  5   1.122   H 13   0.869
    13   1    -0.487781      C  4   1.122   H 12   0.869
    14   1    -0.487171      C  3   1.118   H  6   0.874
    15   1    -0.487159      C  5   1.118   H  8   0.873
    16   1    -0.487159      C  4   1.118   H  7   0.873
    17   1    -0.481972      C  1   1.096   H  2   0.874   (other: 0.030)

 Localized orbitals saved to record      2200.2  (orbital set 4)


 **********************************************************************************************************************************
 DATASETS  * FILE   NREC   LENGTH (MB)   RECORD NAMES
              1      20       89.03       500      610      700      900      950      970     1000      129      960     1100   
                                          VAR    BASINP    GEOM    SYMINP    ZMAT    AOBASIS   BASIS     P2S    ABASIS      S 
                                         1400     1410     1200     1210     1080     1600     1650     1300     1700     1800   
                                           T        V       H0       H01     AOSYM     SMH    MOLCAS    ERIS     OPER     GRID   

              2       5        3.54       700     1000      520     1800     2200   
                                         GEOM     BASIS   MCVARS    GRID      UKS  

 PROGRAMS   *        TOTAL      IBBA       UKS       INT
 CPU TIMES  *        22.36      0.04     19.22      2.96
 REAL TIME  *        24.73 SEC
 DISK USED  *       280.45 MB      
 **********************************************************************************************************************************
 Molecular orbitals read from record     2200.2  Type=UKS/LOCAL(IBO)  
 Occupation numbers read from record     2200.2  Type=UKS/LOCAL(IBO)  
 Orbital energies read from record       2200.2  Type=UKS/LOCAL(IBO)  
 Redundancy group numbers read from rec  2200.2  Type=UKS/BETA (state 1.1)

 IBBA/SVP energy=      0.000000000000

        UKS-SCF 
   -158.21962582
 **********************************************************************************************************************************
 Molpro calculation terminated
