
 Primary working directories    : /local
 Secondary working directories  : /local
 Wavefunction directory         : /local/
 Main file repository           : /local/

 SHA1      : b4a5b34a9e711420743f49e6833241d17c61fb3c
 NAME      : 2099.9.b4a5b34
 ARCHNAME  : linux/x86_64_openmp
 FC        : /cm/shared/languages/GCC-6.1/bin/gfortran
 BLASLIB   : -lblas
 id        : simonbennie

 Nodes     nprocs
 node47-021    1

 Using customized tuning parameters: mindgm=1; mindgv=20; mindgc=4; mindgr=1; noblas=0; minvec=7
 default implementation of scratch files=df  

 memory,500,m
 geomtyp=xyz
 nosym
 noorient
 geometry={
 C         -1.53233        0.02247        0.00000
 C         -0.00192        0.01421        0.00000
 O          0.37239        1.40356        0.00000
 H          1.34248        1.44036        0.00000
 H         -1.92991       -0.99819        0.00000
 H         -1.90797        0.54382       -0.88653
 H         -1.90797        0.54382        0.88653
 C          0.54303       -0.66466       -1.26580
 C          0.54303       -0.66466        1.26580
 H          0.17836       -0.14752       -2.15943
 H          0.17836       -0.14752        2.15943
 H          0.23752       -1.71600       -1.32280
 H          0.23752       -1.71600        1.32280
 H          1.64084       -0.63767       -1.28032
 H          1.64084       -0.63767        1.28032
 }
 basis={ default,avtz }
 {uks,B3LYP3,direct;wf,42,1,0}
 {ibba,bonds=1}

 Variables initialized (895), CPU time= 0.01 sec
 Commands  initialized (725), CPU time= 0.01 sec, 591 directives.
 Default parameters read. Elapsed time= 0.14 sec

 Checking input...
 Passed
1


                                         ***  PROGRAM SYSTEM MOLPRO  ***
                                       Copyright, TTI GmbH Stuttgart, 2015
                                    Version 2099.9 linked May 26 2017 16:03:21


 **********************************************************************************************************************************
 LABEL *                                                                                 
  64 bit serial version                                                                  DATE: 12-Jun-17          TIME: 15:56:22  
 **********************************************************************************************************************************

 SHA1:             b4a5b34a9e711420743f49e6833241d17c61fb3c
 **********************************************************************************************************************************
 SETTING GEOMTYP        =    XYZ

 Variable memory set to  500000000 words,  buffer space 

 ZSYMEL=NOSYM

 SETTING BASIS          =    AVTZ


 Recomputing integrals since basis changed


 Using spherical harmonics

 Library entry C      S aug-cc-pVTZ          selected for orbital group  1
 Library entry C      P aug-cc-pVTZ          selected for orbital group  1
 Library entry C      D aug-cc-pVTZ          selected for orbital group  1
 Library entry C      F aug-cc-pVTZ          selected for orbital group  1
 Library entry O      S aug-cc-pVTZ          selected for orbital group  2
 Library entry O      P aug-cc-pVTZ          selected for orbital group  2
 Library entry O      D aug-cc-pVTZ          selected for orbital group  2
 Library entry O      F aug-cc-pVTZ          selected for orbital group  2
 Library entry H      S aug-cc-pVTZ          selected for orbital group  3
 Library entry H      P aug-cc-pVTZ          selected for orbital group  3
 Library entry H      D aug-cc-pVTZ          selected for orbital group  3


 PROGRAM * SEWARD (Integral evaluation for generally contracted gaussian basis sets)     Author: Roland Lindh, 1990

 Geometry written to block  1 of record 700


 Point group  C1  



 ATOMIC COORDINATES

 NR  ATOM    CHARGE       X              Y              Z

   1  C       6.00   -2.895684032    0.042462146    0.000000000
   2  C       6.00   -0.003628274    0.026853008    0.000000000
   3  O       8.00    0.703715112    2.652343999    0.000000000
   4  H       1.00    2.536919528    2.721885921    0.000000000
   5  H       1.00   -3.647001345   -1.886305720    0.000000000
   6  H       1.00   -3.605540754    1.027670861   -1.675298901
   7  H       1.00   -3.605540754    1.027670861    1.675298901
   8  C       6.00    1.026177977   -1.256025366   -2.392015328
   9  C       6.00    1.026177977   -1.256025366    2.392015328
  10  H       1.00    0.337051552   -0.278772398   -4.080731285
  11  H       1.00    0.337051552   -0.278772398    4.080731285
  12  H       1.00    0.448847749   -3.242770030   -2.499729718
  13  H       1.00    0.448847749   -3.242770030    2.499729718
  14  H       1.00    3.100738214   -1.205021658   -2.419454152
  15  H       1.00    3.100738214   -1.205021658    2.419454152

 Bond lengths in Bohr (Angstrom)

 1-2  2.892097881  1-5  2.069933136  1-6  2.069096224  1-7  2.069096224  2-3  2.719106031
     ( 1.530432290)     ( 1.095361444)     ( 1.094918569)     ( 1.094918569)     ( 1.438888946)

  2- 8  2.903104402   2- 9  2.903104402   3- 4  1.834522965   8-10  2.069222119   8-12  2.071730422
       ( 1.536256691)       ( 1.536256691)       ( 0.970787746)       ( 1.094985190)       ( 1.096312526)

  8-14  2.075368508   9-11  2.069222119   9-13  2.071730422   9-15  2.075368508
       ( 1.098237719)       ( 1.094985190)       ( 1.096312526)       ( 1.098237719)

 Bond angles

  1-2-3  104.76902697   1-2-8  110.92255387   1-2-9  110.92255387   2-1-5  110.97328220

  2- 1- 6  110.22090701   2- 1- 7  110.22090701   2- 3- 4  107.25071562   2- 8-10  110.21836376

  2- 8-12  111.57747468   2- 8-14  110.77023896   2- 9-11  110.21836376   2- 9-13  111.57747468

  2- 9-15  110.77023896   3- 2- 8  109.53648747   3- 2- 9  109.53648747   5- 1- 6  108.61190457

  5- 1- 7  108.61190457   6- 1- 7  108.12870271   8- 2- 9  110.96453384  10- 8-12  108.52192632

 10- 8-14  108.08997829  11- 9-13  108.52192632  11- 9-15  108.08997829  12- 8-14  107.54424578

 13- 9-15  107.54424578

 NUCLEAR CHARGE:                   42
 NUMBER OF PRIMITIVE AOS:         605
 NUMBER OF SYMMETRY AOS:          540
 NUMBER OF CONTRACTIONS:          460   ( 460A   )
 NUMBER OF CORE ORBITALS:           5   (   5A   )
 NUMBER OF VALENCE ORBITALS:       30   (  30A   )


 NUCLEAR REPULSION ENERGY  198.77359127


 Eigenvalues of metric

         1 0.351E-05 0.596E-05 0.770E-05 0.977E-05 0.161E-04 0.173E-04 0.207E-04 0.297E-04


 Contracted 2-electron integrals neglected if value below      1.0D-12
 AO integral compression algorithm  1   Integral accuracy      1.0D-12

     24892.932 MB (compressed) written to integral file ( 51.7%)


 NUMBER OF SORTED TWO-ELECTRON INTEGRALS: 5621233465.     BUFFER LENGTH:  32768
 NUMBER OF SEGMENTS: 176  SEGMENT LENGTH:   31999951      RECORD LENGTH: 131072

 Memory used in sort:      32.16 MW

 SORT1 READ  6020115514. AND WROTE  5366777799. INTEGRALS IN  61513 RECORDS. CPU TIME:    83.94 SEC, REAL TIME:  1042.92 SEC
 SORT2 READ  5366777799. AND WROTE  5621233465. INTEGRALS IN  94959 RECORDS. CPU TIME:   139.23 SEC, REAL TIME:  6434.89 SEC

 FILE SIZES:   FILE 1: 24930.9 MBYTE,  FILE 4: 64501.1 MBYTE,   TOTAL:  89432.0 MBYTE

 OPERATOR DM      FOR CENTER  0  COORDINATES:    0.000000    0.000000    0.000000


 **********************************************************************************************************************************
 DATASETS  * FILE   NREC   LENGTH (MB)   RECORD NAMES
              1      19    23757.53       500      610      700      900      950      970     1000      129      960     1100   
                                          VAR    BASINP    GEOM    SYMINP    ZMAT    AOBASIS   BASIS     P2S    ABASIS      S 
                                         1400     1410     1200     1210     1080     1600     1650     1300     1700   
                                           T        V       H0       H01     AOSYM     SMH    MOLCAS    ERIS     OPER   

 PROGRAMS   *        TOTAL       INT
 CPU TIMES  *       446.19    446.05
 REAL TIME  *      7858.49 SEC
 DISK USED  *        89.43 GB      
 **********************************************************************************************************************************

 Density functional group B3LYP3=B88+DIRAC+LYP+VWN3
 Functional: B88(Automatically generated (new) B88)                            Gradient terms: 1
 Functional: DIRAC(Automatically generated (new) DIRAC)                        Gradient terms: 0
 Functional: LYP(Automatically generated (new) LYP)                            Gradient terms: 1
 Functional: VWN3(Automatically generated (new) VWN3)                          Gradient terms: 0
 Use grid at  1800.2


 Exact exchange will be calculated, factor:  0.2000

 Functional: B88                       Factor:  0.7200
 Functional: DIRAC                     Factor:  0.0800
 Functional: LYP                       Factor:  0.8100
 Functional: VWN3                      Factor:  0.1900

 Generated new metagrid on record  1800.2 with target accuracy 1.0D-06 and 55396 points in CPU time    1.7
 Computed new grid on record 1800.1 in CPU time    1.9
  370324 words reserved for DFT integration

 PROGRAM * UKS-SCF (Unrestricted Kohn-Sham)     Authors: W. Meyer, H.-J. Werner, P.J. Knowles, 1993

 NUMBER OF ELECTRONS:      21+   21-    SPACE SYMMETRY=1    SPIN SYMMETRY: Singlet 
 CONVERGENCE THRESHOLDS:    1.00E-05 (Density)    1.00E-06 (Energy)
 MAX. NUMBER OF ITERATIONS:       60
 INTERPOLATION TYPE:            DIIS
 INTERPOLATION STEPS:              2 (START)      1 (STEP)
 LEVEL SHIFTS:                 -0.20 (ALPHA)  -0.20 (BETA) 



 Use fine grid record 1800.2 for energy threshold  1.0D-06
 Orbital guess generated from atomic densities. Full valence occupancy:   35

 Molecular orbital dump at record        2200.2

 Initial alpha occupation  21
 Initial beta  occupation  21

 ITERATION    DDIFF          GRAD             ENERGY        2-EL.EN.            DIPOLE MOMENTS         DIIS
    1      0.000D+00      0.000D+00      -233.54963087    624.174687    0.69827   -0.82998    0.00000    0
    2      0.707D-02      0.147D-02      -233.73488706    603.857777    0.23331   -0.48873    0.00000    1
    3      0.216D-02      0.754D-03      -233.77254597    609.199555    0.35461   -0.58882    0.00000    2
    4      0.417D-03      0.110D-03      -233.77368355    609.057020    0.34090   -0.54275    0.00000    3
    5      0.254D-03      0.488D-04      -233.77407592    608.975988    0.33642   -0.54588    0.00000    4
    6      0.186D-03      0.144D-04      -233.77415063    608.934381    0.33345   -0.54158    0.00000    5
    7      0.680D-04      0.370D-05      -233.77415479    608.905555    0.33195   -0.54151    0.00000    6
    8      0.216D-04      0.221D-05      -233.77415550    608.914895    0.33200   -0.54187    0.00000    7
    9      0.104D-04      0.371D-06      -233.77415557    608.914261    0.33193   -0.54174    0.00000    6
   10      0.167D-05      0.105D-06      -233.77415557    608.913739    0.33186   -0.54182    0.00000    7
   11      0.660D-06      0.527D-07      -233.77415557    608.914107    0.33187   -0.54182    0.00000    7

 Final alpha occupancy:  21
 Final beta  occupancy:  21

 !UKS STATE 1.1 Energy               -233.774155568904
 Nuclear energy                       198.77359127
 One-electron energy                 -709.44123676
 Two-electron energy                  304.45705363
 Density functional                   -27.56356372     B88=-32.56221898 DIRAC=-29.34409034 LYP= -1.37427620 VWN3= -3.46355321
 Virial quotient                       -1.00698548
 !UKS STATE 1.1 Dipole moment           0.33187274    -0.54181553     0.00000000
 Dipole moment /Debye                   0.84348112    -1.37706752     0.00000000

 Orbital energies for positive spin:

         1.1          2.1          3.1          4.1          5.1          6.1          7.1          8.1          9.1         10.1
    -19.126890   -10.235680   -10.166859   -10.166844   -10.161511    -1.021455    -0.790670    -0.694823    -0.693718    -0.572151

        11.1         12.1         13.1         14.1         15.1         16.1         17.1         18.1         19.1         20.1
     -0.493108    -0.455606    -0.452806    -0.416540    -0.401917    -0.384072    -0.370800    -0.360162    -0.353033    -0.325129

        21.1         22.1         23.1
     -0.278138    -0.017522     0.005358

 Orbital energies for negative spin:

         1.1          2.1          3.1          4.1          5.1          6.1          7.1          8.1          9.1         10.1
    -19.126889   -10.235680   -10.166859   -10.166843   -10.161511    -1.021453    -0.790669    -0.694823    -0.693717    -0.572151

        11.1         12.1         13.1         14.1         15.1         16.1         17.1         18.1         19.1         20.1
     -0.493108    -0.455606    -0.452806    -0.416539    -0.401917    -0.384072    -0.370800    -0.360161    -0.353033    -0.325128

        21.1         22.1         23.1
     -0.278137    -0.017522     0.005358

 HOMO    -21.1    -0.278137 =      -7.5685eV
 LUMO     22.1    -0.017522 =      -0.4768eV
 LUMO-HOMO         0.260615 =       7.0917eV

 EXPECTATION VALUE OF S**2:             0.00000000

 Occupation number threshold for canonical orbitals:  1.999000 (occupied),  0.001000 (virtual)

 Number of pseudo-canonical orbitals per symmetry:   21
 Number of active natural orbitals per symmetry:      0

 Natural orbitals saved to record    2200.2 (Orbital set 3)

 Orbital spaces for UNO-CAS (Min. occupation: 0.020  Max. occupation: 1.980):

 Closed:       21
 Active:        0


 **********************************************************************************************************************************
 DATASETS  * FILE   NREC   LENGTH (MB)   RECORD NAMES
              1      20    23759.30       500      610      700      900      950      970     1000      129      960     1100   
                                          VAR    BASINP    GEOM    SYMINP    ZMAT    AOBASIS   BASIS     P2S    ABASIS      S 
                                         1400     1410     1200     1210     1080     1600     1650     1300     1700     1800   
                                           T        V       H0       H01     AOSYM     SMH    MOLCAS    ERIS     OPER     GRID   

              2       5       11.56       700     1000      520     1800     2200   
                                         GEOM     BASIS   MCVARS    GRID      UKS  

 PROGRAMS   *        TOTAL       UKS       INT
 CPU TIMES  *      2174.93   1728.74    446.05
 REAL TIME  *     15726.34 SEC
 DISK USED  *        89.43 GB      
 **********************************************************************************************************************************


 PROGRAM * Intrinsic Basis Bonding Analysis (IBBA)          Author: G. Knizia

 Molecular orbitals read from record     2200.2  Type=UKS/ALPHA (state 1.1)
 Fock matrix read from record            2200.2  Type=UKS/TOTAL (state 1.1)
 Orbital energies read from record       2200.2  Type=UKS/ALPHA (state 1.1)
 Density matrix read from record         2200.2  Type=UKS/CHARGE (state 1.1)

 Number of core orbitals:           5 (   5 )
 Number of closed-shell orbitals:  16 (  16 )

 Basis set MINAO-AUTO-PP generated.      Number of basis functions:   35 

 Polarized AO type:                A = (O Ot + (1-O)(1-Ot)) P12
 Orthogonalization method:         Symmetric (Loewdin)
 Localization functional:          L = sum[A,i] <i|n_A|i>^4 -> max

 Localization group 1:  21 orbitals, occupancy  2.000
 Iterative localization: IB/PM,    7 iter; Final gradient 0.29E-08

 Bond order analysis:       [THRPRINT= 0.020]

   CEN ATOM   CEN ATOM     WIBERG.BO      RENORM.BO
     1   C  -   2   C       0.996403       0.994032
     1   C  -   5   H       0.963759       0.987193
     1   C  -   6   H       0.959076       0.981708
     1   C  -   7   H       0.959076       0.981708

     2   C  -   1   C       0.996403       0.994032
     2   C  -   9   C       0.995281       0.976608
     2   C  -   8   C       0.995281       0.976608
     2   C  -   3   O       0.930951       0.950176

     3   O  -   2   C       0.930951       0.950176
     3   O  -   4   H       0.861274       0.976154
     3   O  -   9   C       0.027278       0.013952
     3   O  -   8   C       0.027278       0.013952

     4   H  -   3   O       0.861274       0.976154

     5   H  -   1   C       0.963759       0.987193

     6   H  -   1   C       0.959076       0.981708

     7   H  -   1   C       0.959076       0.981708

     8   C  -   2   C       0.995281       0.976608
     8   C  -  14   H       0.963210       0.982429
     8   C  -  12   H       0.959598       0.981667
     8   C  -  10   H       0.959554       0.981546
     8   C  -   3   O       0.027278       0.013952

     9   C  -   2   C       0.995281       0.976608
     9   C  -  15   H       0.963210       0.982429
     9   C  -  13   H       0.959598       0.981667
     9   C  -  11   H       0.959554       0.981546
     9   C  -   3   O       0.027278       0.013952

    10   H  -   8   C       0.959554       0.981546

    11   H  -   9   C       0.959554       0.981546

    12   H  -   8   C       0.959598       0.981667

    13   H  -   9   C       0.959598       0.981667

    14   H  -   8   C       0.963210       0.982429

    15   H  -   9   C       0.963210       0.982429


 Valency analysis:

   CEN ATOM   TOT.VALENCE
     1   C       3.937569
     2   C       3.928015
     3   O       1.912978
     4   H       0.880908
     5   H       0.982217
     6   H       0.979582
     7   H       0.979582
     8   C       3.940143
     9   C       3.940143
    10   H       0.979584
    11   H       0.979584
    12   H       0.981407
    13   H       0.981407
    14   H       0.983661
    15   H       0.983661

 Total charge composition:

   CEN ATOM         s          p       ELECTRONS ->P.CHARGE
     1   C       3.04214    3.36923      6.41137   -0.41137
     2   C       2.93911    2.79996      5.73907    0.26093
     3   O       3.64909    4.92974      8.57883   -0.57883
     4   H       0.65490                 0.65490    0.34510
     5   H       0.86665                 0.86665    0.13335
     6   H       0.85711                 0.85711    0.14289
     7   H       0.85711                 0.85711    0.14289
     8   C       3.04853    3.37602      6.42455   -0.42455
     9   C       3.04853    3.37602      6.42455   -0.42455
    10   H       0.85711                 0.85711    0.14289
    11   H       0.85711                 0.85711    0.14289
    12   H       0.86364                 0.86364    0.13636
    13   H       0.86364                 0.86364    0.13636
    14   H       0.87218                 0.87218    0.12782
    15   H       0.87218                 0.87218    0.12782

 Total charge composition, AO contributions:

   CEN ATOM SHL      SPHERICAL COMPONENTS
     1   C  1s       1.99120
     1   C  2s       1.05093
     1   C  2p       1.03730    1.15975    1.17218

     2   C  1s       1.99283
     2   C  2s       0.94628
     2   C  2p       1.00707    0.78288    1.01001

     3   O  1s       1.99715
     3   O  2s       1.65194
     3   O  2p       1.47614    1.49662    1.95697

     4   H  1s       0.65490

     5   H  1s       0.86665

     6   H  1s       0.85711

     7   H  1s       0.85711

     8   C  1s       1.99130
     8   C  2s       1.05722
     8   C  2p       1.14191    1.14171    1.09241

     9   C  1s       1.99130
     9   C  2s       1.05722
     9   C  2p       1.14191    1.14171    1.09241

    10   H  1s       0.85711

    11   H  1s       0.85711

    12   H  1s       0.86364

    13   H  1s       0.86364

    14   H  1s       0.87218

    15   H  1s       0.87218

 Summary of localized orbital composition:   [THRPRINT= 0.020]

   ORB  GRP  ORB.ENERGY      CENTERS/CHARGES
     1   1   -18.966482      O  3   2.000
     2   1   -10.143688      C  2   2.000
     3   1   -10.051743      C  8   2.000
     4   1   -10.051743      C  9   2.000
     5   1   -10.045608      C  1   2.000
     6   1    -0.766209      O  3   1.347   H  4   0.643
     7   1    -0.723656      O  3   1.289   C  2   0.693
     8   1    -0.581503      O  3   1.982
     9   1    -0.577765      C  9   1.007   C  2   0.978
    10   1    -0.577765      C  8   1.007   C  2   0.978
    11   1    -0.576985      C  1   0.990   C  2   0.987   (other: 0.023)
    12   1    -0.509953      C  9   1.132   H 13   0.854
    13   1    -0.509953      C  8   1.132   H 12   0.854
    14   1    -0.508051      C  9   1.123   H 15   0.865
    15   1    -0.508051      C  8   1.123   H 14   0.865
    16   1    -0.505582      C  1   1.127   H  5   0.860
    17   1    -0.503961      C  8   1.141   H 10   0.849
    18   1    -0.503961      C  9   1.141   H 11   0.849
    19   1    -0.499216      C  1   1.140   H  7   0.849
    20   1    -0.499216      C  1   1.140   H  6   0.849
    21   1    -0.310751      O  3   1.957   (other: 0.043)

 Localized orbitals saved to record      2200.2  (orbital set 4)


 **********************************************************************************************************************************
 DATASETS  * FILE   NREC   LENGTH (MB)   RECORD NAMES
              1      20    23759.30       500      610      700      900      950      970     1000      129      960     1100   
                                          VAR    BASINP    GEOM    SYMINP    ZMAT    AOBASIS   BASIS     P2S    ABASIS      S 
                                         1400     1410     1200     1210     1080     1600     1650     1300     1700     1800   
                                           T        V       H0       H01     AOSYM     SMH    MOLCAS    ERIS     OPER     GRID   

              2       5       13.27       700     1000      520     1800     2200   
                                         GEOM     BASIS   MCVARS    GRID      UKS  

 PROGRAMS   *        TOTAL      IBBA       UKS       INT
 CPU TIMES  *      2175.19      0.25   1728.74    446.05
 REAL TIME  *     15726.93 SEC
 DISK USED  *        89.43 GB      
 **********************************************************************************************************************************
 Molecular orbitals read from record     2200.2  Type=UKS/LOCAL(IBO)  
 Occupation numbers read from record     2200.2  Type=UKS/LOCAL(IBO)  
 Orbital energies read from record       2200.2  Type=UKS/LOCAL(IBO)  
 Redundancy group numbers read from rec  2200.2  Type=UKS/BETA (state 1.1)

 IBBA/aug-cc-pVTZ energy=      0.000000000000

        UKS-SCF 
   -233.77415557
 **********************************************************************************************************************************
 Molpro calculation terminated
