
 Primary working directories    : /local
 Secondary working directories  : /local
 Wavefunction directory         : /local/
 Main file repository           : /local/

 SHA1      : b4a5b34a9e711420743f49e6833241d17c61fb3c
 NAME      : 2099.9.b4a5b34
 ARCHNAME  : linux/x86_64_openmp
 FC        : /cm/shared/languages/GCC-6.1/bin/gfortran
 BLASLIB   : -lblas
 id        : simonbennie

 Nodes     nprocs
 node47-015    1

 Using customized tuning parameters: mindgm=1; mindgv=20; mindgc=4; mindgr=1; noblas=0; minvec=7
 default implementation of scratch files=df  

 memory,500,m
 geomtyp=xyz
 nosym
 noorient
 geometry={
 C         -1.53233        0.02247        0.00000
 C         -0.00192        0.01421        0.00000
 O          0.37239        1.40356        0.00000
 H          1.34248        1.44036        0.00000
 H         -1.92991       -0.99819        0.00000
 H         -1.90797        0.54382       -0.88653
 H         -1.90797        0.54382        0.88653
 C          0.54303       -0.66466       -1.26580
 C          0.54303       -0.66466        1.26580
 H          0.17836       -0.14752       -2.15943
 H          0.17836       -0.14752        2.15943
 H          0.23752       -1.71600       -1.32280
 H          0.23752       -1.71600        1.32280
 H          1.64084       -0.63767       -1.28032
 H          1.64084       -0.63767        1.28032
 }
 basis={ default,avdz }
 {ks,LYP88,direct;wf,42,1,0}
 {ibba,bonds=1}

 Variables initialized (895), CPU time= 0.01 sec
 Commands  initialized (725), CPU time= 0.01 sec, 591 directives.
 Default parameters read. Elapsed time= 0.08 sec

 Checking input...
 Passed
1


                                         ***  PROGRAM SYSTEM MOLPRO  ***
                                       Copyright, TTI GmbH Stuttgart, 2015
                                    Version 2099.9 linked May 26 2017 16:03:21


 **********************************************************************************************************************************
 LABEL *                                                                                 
  64 bit serial version                                                                  DATE: 12-Jun-17          TIME: 16:26:18  
 **********************************************************************************************************************************

 SHA1:             b4a5b34a9e711420743f49e6833241d17c61fb3c
 **********************************************************************************************************************************
 SETTING GEOMTYP        =    XYZ

 Variable memory set to  500000000 words,  buffer space 

 ZSYMEL=NOSYM

 SETTING BASIS          =    AVDZ


 Recomputing integrals since basis changed


 Using spherical harmonics

 Library entry C      S aug-cc-pVDZ          selected for orbital group  1
 Library entry C      P aug-cc-pVDZ          selected for orbital group  1
 Library entry C      D aug-cc-pVDZ          selected for orbital group  1
 Library entry O      S aug-cc-pVDZ          selected for orbital group  2
 Library entry O      P aug-cc-pVDZ          selected for orbital group  2
 Library entry O      D aug-cc-pVDZ          selected for orbital group  2
 Library entry H      S aug-cc-pVDZ          selected for orbital group  3
 Library entry H      P aug-cc-pVDZ          selected for orbital group  3


 PROGRAM * SEWARD (Integral evaluation for generally contracted gaussian basis sets)     Author: Roland Lindh, 1990

 Geometry written to block  1 of record 700


 Point group  C1  



 ATOMIC COORDINATES

 NR  ATOM    CHARGE       X              Y              Z

   1  C       6.00   -2.895684032    0.042462146    0.000000000
   2  C       6.00   -0.003628274    0.026853008    0.000000000
   3  O       8.00    0.703715112    2.652343999    0.000000000
   4  H       1.00    2.536919528    2.721885921    0.000000000
   5  H       1.00   -3.647001345   -1.886305720    0.000000000
   6  H       1.00   -3.605540754    1.027670861   -1.675298901
   7  H       1.00   -3.605540754    1.027670861    1.675298901
   8  C       6.00    1.026177977   -1.256025366   -2.392015328
   9  C       6.00    1.026177977   -1.256025366    2.392015328
  10  H       1.00    0.337051552   -0.278772398   -4.080731285
  11  H       1.00    0.337051552   -0.278772398    4.080731285
  12  H       1.00    0.448847749   -3.242770030   -2.499729718
  13  H       1.00    0.448847749   -3.242770030    2.499729718
  14  H       1.00    3.100738214   -1.205021658   -2.419454152
  15  H       1.00    3.100738214   -1.205021658    2.419454152

 Bond lengths in Bohr (Angstrom)

 1-2  2.892097881  1-5  2.069933136  1-6  2.069096224  1-7  2.069096224  2-3  2.719106031
     ( 1.530432290)     ( 1.095361444)     ( 1.094918569)     ( 1.094918569)     ( 1.438888946)

  2- 8  2.903104402   2- 9  2.903104402   3- 4  1.834522965   8-10  2.069222119   8-12  2.071730422
       ( 1.536256691)       ( 1.536256691)       ( 0.970787746)       ( 1.094985190)       ( 1.096312526)

  8-14  2.075368508   9-11  2.069222119   9-13  2.071730422   9-15  2.075368508
       ( 1.098237719)       ( 1.094985190)       ( 1.096312526)       ( 1.098237719)

 Bond angles

  1-2-3  104.76902697   1-2-8  110.92255387   1-2-9  110.92255387   2-1-5  110.97328220

  2- 1- 6  110.22090701   2- 1- 7  110.22090701   2- 3- 4  107.25071562   2- 8-10  110.21836376

  2- 8-12  111.57747468   2- 8-14  110.77023896   2- 9-11  110.21836376   2- 9-13  111.57747468

  2- 9-15  110.77023896   3- 2- 8  109.53648747   3- 2- 9  109.53648747   5- 1- 6  108.61190457

  5- 1- 7  108.61190457   6- 1- 7  108.12870271   8- 2- 9  110.96453384  10- 8-12  108.52192632

 10- 8-14  108.08997829  11- 9-13  108.52192632  11- 9-15  108.08997829  12- 8-14  107.54424578

 13- 9-15  107.54424578

 NUCLEAR CHARGE:                   42
 NUMBER OF PRIMITIVE AOS:         295
 NUMBER OF SYMMETRY AOS:          285
 NUMBER OF CONTRACTIONS:          205   ( 205A   )
 NUMBER OF CORE ORBITALS:           5   (   5A   )
 NUMBER OF VALENCE ORBITALS:       30   (  30A   )


 NUCLEAR REPULSION ENERGY  198.77359127


 Eigenvalues of metric

         1 0.151E-04 0.552E-04 0.579E-04 0.110E-03 0.111E-03 0.217E-03 0.237E-03 0.259E-03


 Contracted 2-electron integrals neglected if value below      1.0D-12
 AO integral compression algorithm  1   Integral accuracy      1.0D-12

     1203.503 MB (compressed) written to integral file ( 61.3%)


 NUMBER OF SORTED TWO-ELECTRON INTEGRALS:  222932170.     BUFFER LENGTH:  32768
 NUMBER OF SEGMENTS:  14  SEGMENT LENGTH:   15999503      RECORD LENGTH: 524288

 Memory used in sort:      16.56 MW

 SORT1 READ   245224724. AND WROTE   218324786. INTEGRALS IN    630 RECORDS. CPU TIME:     2.87 SEC, REAL TIME:     5.27 SEC
 SORT2 READ   218324786. AND WROTE   222932170. INTEGRALS IN   4591 RECORDS. CPU TIME:     4.51 SEC, REAL TIME:     5.92 SEC

 FILE SIZES:   FILE 1:  1235.3 MBYTE,  FILE 4:  2642.4 MBYTE,   TOTAL:   3877.7 MBYTE

 OPERATOR DM      FOR CENTER  0  COORDINATES:    0.000000    0.000000    0.000000


 **********************************************************************************************************************************
 DATASETS  * FILE   NREC   LENGTH (MB)   RECORD NAMES
              1      19     1149.90       500      610      700      900      950      970     1000      129      960     1100   
                                          VAR    BASINP    GEOM    SYMINP    ZMAT    AOBASIS   BASIS     P2S    ABASIS      S 
                                         1400     1410     1200     1210     1080     1600     1650     1300     1700   
                                           T        V       H0       H01     AOSYM     SMH    MOLCAS    ERIS     OPER   

 PROGRAMS   *        TOTAL       INT
 CPU TIMES  *        19.23     19.07
 REAL TIME  *        42.79 SEC
 DISK USED  *         3.88 GB      
 **********************************************************************************************************************************

 Density functional group LYP88=LYP
 Functional: LYP(Automatically generated (new) LYP)                            Gradient terms: 1
 Use grid at  1800.2

 Functional: LYP                       Factor:  1.0000

 Generated new metagrid on record  1800.2 with target accuracy 1.0D-06 and 53396 points in CPU time    1.7
 Computed new grid on record 1800.1 in CPU time    1.9
  167289 words reserved for DFT integration

 PROGRAM * RKS-SCF (Restricted closed shell Kohn-Sham)     Authors: W. Meyer, H.-J. Werner, P.J. Knowles, 1993

 NUMBER OF ELECTRONS:      21+   21-    SPACE SYMMETRY=1    SPIN SYMMETRY: Singlet 
 CONVERGENCE THRESHOLDS:    1.00E-05 (Density)    1.00E-06 (Energy)
 MAX. NUMBER OF ITERATIONS:       60
 INTERPOLATION TYPE:            DIIS
 INTERPOLATION STEPS:              2 (START)      1 (STEP)
 LEVEL SHIFTS:                  0.00 (CLOSED)  0.00 (OPEN) 



 Use fine grid record 1800.2 for energy threshold  1.0D-06
 Orbital guess generated from atomic densities. Full valence occupancy:   35

 Molecular orbital dump at record        2100.2

 Initial occupancy:  21

 ITERATION    DDIFF          GRAD             ENERGY        2-EL.EN.            DIPOLE MOMENTS         DIIS   ORB.
    1      0.000D+00      0.000D+00      -194.94566580    487.771112    3.31435   11.06960   -0.00000    0    start
    2      0.000D+00      0.327D-01      -165.58999214    763.123769  -10.31943  -33.43602    0.00000    1    diag
    3      0.126D+01      0.101D+00      -194.12427174    688.875601   -0.30578   -7.59166   -0.00000    2    diag
    4      0.119D+00      0.462D-01      -199.85949009    629.849339   -1.88900   -7.22542    0.00000    3    diag
    5      0.502D-01      0.233D-01      -201.05213300    626.993684    0.98133   -0.46317   -0.00000    4    diag
    6      0.395D-01      0.140D-01      -201.57736438    587.718613   -0.34771   -2.18860   -0.00000    5    diag
    7      0.320D-01      0.103D-01      -201.87950876    593.495588   -0.35701   -1.04430   -0.00000    6    diag
    8      0.170D-01      0.298D-02      -201.90280496    590.136612    0.74970    0.19105    0.00000    7    diag
    9      0.136D-01      0.172D-02      -201.91284228    589.852186    0.21322   -0.22604    0.00000    8    diag
   10      0.574D-02      0.430D-03      -201.91360243    590.302091    0.23882   -0.32689    0.00000    9    orth
   11      0.122D-02      0.162D-03      -201.91371517    590.597699    0.23272   -0.32337    0.00000    9    diag
   12      0.721D-03      0.444D-04      -201.91372263    590.523007    0.23783   -0.31137    0.00000    9    diag
   13      0.207D-03      0.937D-05      -201.91372296    590.511591    0.23544   -0.31325   -0.00000    9    diag
   14      0.396D-04      0.280D-05      -201.91372299    590.511053    0.23652   -0.31239    0.00000    9    diag
   15      0.115D-04      0.695D-06      -201.91372299    590.512434    0.23624   -0.31268   -0.00000    9    diag
   16      0.513D-05      0.178D-06      -201.91372299    590.510063    0.23626   -0.31248    0.00000    0    orth

 Final occupancy:  21

 !RKS STATE 1.1 Energy               -201.913722991410
 Nuclear energy                       198.77359127
 One-electron energy                 -694.60619163
 Two-electron energy                  295.25503171
 Density functional                    -1.33615434     LYP=-1.33615434
 Virial quotient                       -0.91502280
 !RKS STATE 1.1 Dipole moment           0.23625801    -0.31247505     0.00000000
 Dipole moment /Debye                   0.60046862    -0.79418034     0.00000000

 Orbital energies:

         1.1          2.1          3.1          4.1          5.1          6.1          7.1          8.1          9.1         10.1
    -16.663637    -8.264853    -8.216733    -8.216376    -8.211394    -0.659456    -0.456875    -0.366110    -0.363787    -0.265353

        11.1         12.1         13.1         14.1         15.1         16.1         17.1         18.1         19.1         20.1
     -0.206672    -0.181429    -0.181009    -0.136445    -0.123760    -0.103292    -0.075292    -0.074243    -0.070730    -0.050822

        21.1         22.1         23.1
     -0.006258     0.026555     0.041751

 HOMO     21.1    -0.006258 =      -0.1703eV
 LUMO     22.1     0.026555 =       0.7226eV
 LUMO-HOMO         0.032814 =       0.8929eV


 **********************************************************************************************************************************
 DATASETS  * FILE   NREC   LENGTH (MB)   RECORD NAMES
              1      20     1151.61       500      610      700      900      950      970     1000      129      960     1100   
                                          VAR    BASINP    GEOM    SYMINP    ZMAT    AOBASIS   BASIS     P2S    ABASIS      S 
                                         1400     1410     1200     1210     1080     1600     1650     1300     1700     1800   
                                           T        V       H0       H01     AOSYM     SMH    MOLCAS    ERIS     OPER     GRID   

              2       5        3.87       700     1000      520     1800     2100   
                                         GEOM     BASIS   MCVARS    GRID      RKS  

 PROGRAMS   *        TOTAL        KS       INT
 CPU TIMES  *        94.95     75.73     19.07
 REAL TIME  *       123.08 SEC
 DISK USED  *         3.88 GB      
 **********************************************************************************************************************************


 PROGRAM * Intrinsic Basis Bonding Analysis (IBBA)          Author: G. Knizia

 Molecular orbitals read from record     2100.2  Type=RKS/CANONICAL (state 1.1)
 Fock matrix read from record            2100.2  Type=RKS/TOTAL (state 1.1)
 Orbital energies read from record       2100.2  Type=RKS/CANONICAL (state 1.1)
 Density matrix read from record         2100.2  Type=RKS/CHARGE (state 1.1)

 Number of core orbitals:           5 (   5 )
 Number of closed-shell orbitals:  16 (  16 )

 Basis set MINAO-AUTO-PP generated.      Number of basis functions:   35 

 Polarized AO type:                A = (O Ot + (1-O)(1-Ot)) P12
 Orthogonalization method:         Symmetric (Loewdin)
 Localization functional:          L = sum[A,i] <i|n_A|i>^4 -> max

 Localization group 1:  21 orbitals, occupancy  2.000
 Iterative localization: IB/PM,    7 iter; Final gradient 0.49E-08

 Bond order analysis:       [THRPRINT= 0.020]

   CEN ATOM   CEN ATOM     WIBERG.BO      RENORM.BO
     1   C  -   2   C       0.984752       0.997770
     1   C  -   5   H       0.953414       0.969729
     1   C  -   6   H       0.944953       0.951704
     1   C  -   7   H       0.944953       0.951704
     1   C  -   3   O       0.032379       0.017878
     1   C  -   4   H       0.025292       0.032471
     1   C  -  15   H       0.021765       0.023183
     1   C  -  14   H       0.021765       0.023183

     2   C  -   9   C       0.990250       0.975489
     2   C  -   8   C       0.990250       0.975489
     2   C  -   1   C       0.984752       0.997770
     2   C  -   3   O       0.963384       0.932258

     3   O  -   2   C       0.963384       0.932258
     3   O  -   4   H       0.897927       0.929736
     3   O  -   8   C       0.054201       0.029427
     3   O  -   9   C       0.054201       0.029427
     3   O  -  12   H       0.036743       0.026030
     3   O  -  13   H       0.036743       0.026030
     3   O  -   1   C       0.032379       0.017878
     3   O  -   5   H       0.021869       0.016773

     4   H  -   3   O       0.897927       0.929736
     4   H  -   1   C       0.025292       0.032471

     5   H  -   1   C       0.953414       0.969729
     5   H  -   3   O       0.021869       0.016773

     6   H  -   1   C       0.944953       0.951704
     6   H  -   9   C       0.024689       0.025755

     7   H  -   1   C       0.944953       0.951704
     7   H  -   8   C       0.024689       0.025755

     8   C  -   2   C       0.990250       0.975489
     8   C  -  14   H       0.944807       0.956599
     8   C  -  10   H       0.944048       0.947829
     8   C  -  12   H       0.943390       0.950500
     8   C  -   3   O       0.054201       0.029427
     8   C  -  11   H       0.025198       0.026306
     8   C  -   7   H       0.024689       0.025755

     9   C  -   2   C       0.990250       0.975489
     9   C  -  15   H       0.944807       0.956599
     9   C  -  11   H       0.944048       0.947829
     9   C  -  13   H       0.943390       0.950500
     9   C  -   3   O       0.054201       0.029427
     9   C  -  10   H       0.025198       0.026306
     9   C  -   6   H       0.024689       0.025755

    10   H  -   8   C       0.944048       0.947829
    10   H  -   9   C       0.025198       0.026306

    11   H  -   9   C       0.944048       0.947829
    11   H  -   8   C       0.025198       0.026306

    12   H  -   8   C       0.943390       0.950500
    12   H  -   3   O       0.036743       0.026030

    13   H  -   9   C       0.943390       0.950500
    13   H  -   3   O       0.036743       0.026030

    14   H  -   8   C       0.944807       0.956599
    14   H  -   1   C       0.021765       0.023183

    15   H  -   9   C       0.944807       0.956599
    15   H  -   1   C       0.021765       0.023183


 Valency analysis:

   CEN ATOM   TOT.VALENCE
     1   C       3.962654
     2   C       3.948466
     3   O       2.124943
     4   H       0.949746
     5   H       0.995095
     6   H       0.995121
     7   H       0.995121
     8   C       3.963584
     9   C       3.963584
    10   H       0.994881
    11   H       0.994881
    12   H       0.995387
    13   H       0.995387
    14   H       0.996284
    15   H       0.996284

 Total charge composition:

   CEN ATOM         s          p       ELECTRONS ->P.CHARGE
     1   C       2.94218    3.28096      6.22315   -0.22315
     2   C       2.86780    2.88236      5.75016    0.24984
     3   O       3.57712    4.78311      8.36023   -0.36023
     4   H       0.77583                 0.77583    0.22417
     5   H       0.92996                 0.92996    0.07004
     6   H       0.93015                 0.93015    0.06985
     7   H       0.93015                 0.93015    0.06985
     8   C       2.96393    3.28668      6.25061   -0.25061
     9   C       2.96393    3.28668      6.25061   -0.25061
    10   H       0.92846                 0.92846    0.07154
    11   H       0.92846                 0.92846    0.07154
    12   H       0.93208                 0.93208    0.06792
    13   H       0.93208                 0.93208    0.06792
    14   H       0.93904                 0.93904    0.06096
    15   H       0.93904                 0.93904    0.06096

 Total charge composition, AO contributions:

   CEN ATOM SHL      SPHERICAL COMPONENTS
     1   C  1s       1.99744
     1   C  2s       0.94474
     1   C  2p       1.02234    1.12456    1.13407

     2   C  1s       1.99811
     2   C  2s       0.86969
     2   C  2p       1.01922    0.84334    1.01980

     3   O  1s       1.99881
     3   O  2s       1.57831
     3   O  2p       1.39812    1.47735    1.90764

     4   H  1s       0.77583

     5   H  1s       0.92996

     6   H  1s       0.93015

     7   H  1s       0.93015

     8   C  1s       1.99747
     8   C  2s       0.96646
     8   C  2p       1.10570    1.11377    1.06722

     9   C  1s       1.99747
     9   C  2s       0.96646
     9   C  2p       1.10570    1.11377    1.06722

    10   H  1s       0.92846

    11   H  1s       0.92846

    12   H  1s       0.93208

    13   H  1s       0.93208

    14   H  1s       0.93904

    15   H  1s       0.93904

 Summary of localized orbital composition:   [THRPRINT= 0.020]

   ORB  GRP  ORB.ENERGY      CENTERS/CHARGES
     1   1   -16.562785      O  3   2.000
     2   1    -8.193310      C  2   2.000
     3   1    -8.131993      C  9   2.000
     4   1    -8.131993      C  8   2.000
     5   1    -8.126697      C  1   2.000
     6   1    -0.441381      O  3   1.235   C  2   0.739   (other: 0.026)
     7   1    -0.415506      O  3   1.241   H  4   0.742
     8   1    -0.286850      C  9   1.018   C  2   0.951   (other: 0.031)
     9   1    -0.286850      C  8   1.018   C  2   0.951   (other: 0.031)
    10   1    -0.285714      C  1   0.992   C  2   0.959   (other: 0.049)
    11   1    -0.213327      O  3   1.965   (other: 0.035)
    12   1    -0.201604      C  8   1.049   H 14   0.924   (other: 0.027)
    13   1    -0.201604      C  9   1.049   H 15   0.924   (other: 0.027)
    14   1    -0.200535      C  8   1.064   H 12   0.911   (other: 0.025)
    15   1    -0.200535      C  9   1.064   H 13   0.911   (other: 0.025)
    16   1    -0.196788      C  1   1.060   H  5   0.916   (other: 0.024)
    17   1    -0.195233      C  8   1.070   H 10   0.909   (other: 0.020)
    18   1    -0.195233      C  9   1.070   H 11   0.909   (other: 0.020)
    19   1    -0.192688      C  1   1.067   H  6   0.912   (other: 0.021)
    20   1    -0.192688      C  1   1.067   H  7   0.912   (other: 0.021)
    21   1    -0.041211      O  3   1.908   C  2   0.027   (other: 0.066)

 Localized orbitals saved to record      2100.2  (orbital set 2)


 **********************************************************************************************************************************
 DATASETS  * FILE   NREC   LENGTH (MB)   RECORD NAMES
              1      20     1151.61       500      610      700      900      950      970     1000      129      960     1100   
                                          VAR    BASINP    GEOM    SYMINP    ZMAT    AOBASIS   BASIS     P2S    ABASIS      S 
                                         1400     1410     1200     1210     1080     1600     1650     1300     1700     1800   
                                           T        V       H0       H01     AOSYM     SMH    MOLCAS    ERIS     OPER     GRID   

              2       5        4.21       700     1000      520     1800     2100   
                                         GEOM     BASIS   MCVARS    GRID      RKS  

 PROGRAMS   *        TOTAL      IBBA        KS       INT
 CPU TIMES  *        95.02      0.07     75.73     19.07
 REAL TIME  *       123.25 SEC
 DISK USED  *         3.88 GB      
 **********************************************************************************************************************************
 Molecular orbitals read from record     2100.2  Type=RKS/LOCAL(IBO)  
 Occupation numbers read from record     2100.2  Type=RKS/LOCAL(IBO)  
 Orbital energies read from record       2100.2  Type=RKS/LOCAL(IBO)  
 Redundancy group numbers read from rec  2100.2  Type=RKS/LOCAL(IBO)  

 IBBA/aug-cc-pVDZ energy=      0.000000000000

        KS-SCF  
   -201.91372299
 **********************************************************************************************************************************
 Molpro calculation terminated
