
 Primary working directories    : /local
 Secondary working directories  : /local
 Wavefunction directory         : /local/
 Main file repository           : /local/

 SHA1      : b4a5b34a9e711420743f49e6833241d17c61fb3c
 NAME      : 2099.9.b4a5b34
 ARCHNAME  : linux/x86_64_openmp
 FC        : /cm/shared/languages/GCC-6.1/bin/gfortran
 BLASLIB   : -lblas
 id        : simonbennie

 Nodes     nprocs
 node35-028    1

 Using customized tuning parameters: mindgm=1; mindgv=20; mindgc=4; mindgr=1; noblas=0; minvec=7
 default implementation of scratch files=df  

 memory,500,m
 geomtyp=xyz
 nosym
 noorient
 geometry={
 C         -1.53233        0.02247        0.00000
 C         -0.00192        0.01421        0.00000
 O          0.37239        1.40356        0.00000
 H          1.34248        1.44036        0.00000
 H         -1.92991       -0.99819        0.00000
 H         -1.90797        0.54382       -0.88653
 H         -1.90797        0.54382        0.88653
 C          0.54303       -0.66466       -1.26580
 C          0.54303       -0.66466        1.26580
 H          0.17836       -0.14752       -2.15943
 H          0.17836       -0.14752        2.15943
 H          0.23752       -1.71600       -1.32280
 H          0.23752       -1.71600        1.32280
 H          1.64084       -0.63767       -1.28032
 H          1.64084       -0.63767        1.28032
 }
 basis={ default,tzvp }
 {uks,SOGGA11,direct;wf,42,1,0}
 {ibba,bonds=1}

 Variables initialized (895), CPU time= 0.00 sec
 Commands  initialized (725), CPU time= 0.01 sec, 591 directives.
 Default parameters read. Elapsed time= 0.08 sec

 Checking input...
 Passed
1


                                         ***  PROGRAM SYSTEM MOLPRO  ***
                                       Copyright, TTI GmbH Stuttgart, 2015
                                    Version 2099.9 linked May 26 2017 16:03:21


 **********************************************************************************************************************************
 LABEL *                                                                                 
  64 bit serial version                                                                  DATE: 12-Jun-17          TIME: 19:32:09  
 **********************************************************************************************************************************

 SHA1:             b4a5b34a9e711420743f49e6833241d17c61fb3c
 **********************************************************************************************************************************
 SETTING GEOMTYP        =    XYZ

 Variable memory set to  500000000 words,  buffer space 

 ZSYMEL=NOSYM

 SETTING BASIS          =    TZVP


 Recomputing integrals since basis changed


 Using spherical harmonics

 Library entry C      S def2-TZVP            selected for orbital group  1
 Library entry C      P def2-TZVP            selected for orbital group  1
 Library entry C      D def2-TZVP            selected for orbital group  1
 Library entry C      F def2-TZVP            selected for orbital group  1
 Library entry O      S def2-TZVP            selected for orbital group  2
 Library entry O      P def2-TZVP            selected for orbital group  2
 Library entry O      D def2-TZVP            selected for orbital group  2
 Library entry O      F def2-TZVP            selected for orbital group  2
 Library entry H      S def2-TZVP            selected for orbital group  3
 Library entry H      P def2-TZVP            selected for orbital group  3


 PROGRAM * SEWARD (Integral evaluation for generally contracted gaussian basis sets)     Author: Roland Lindh, 1990

 Geometry written to block  1 of record 700


 Point group  C1  



 ATOMIC COORDINATES

 NR  ATOM    CHARGE       X              Y              Z

   1  C       6.00   -2.895684032    0.042462146    0.000000000
   2  C       6.00   -0.003628274    0.026853008    0.000000000
   3  O       8.00    0.703715112    2.652343999    0.000000000
   4  H       1.00    2.536919528    2.721885921    0.000000000
   5  H       1.00   -3.647001345   -1.886305720    0.000000000
   6  H       1.00   -3.605540754    1.027670861   -1.675298901
   7  H       1.00   -3.605540754    1.027670861    1.675298901
   8  C       6.00    1.026177977   -1.256025366   -2.392015328
   9  C       6.00    1.026177977   -1.256025366    2.392015328
  10  H       1.00    0.337051552   -0.278772398   -4.080731285
  11  H       1.00    0.337051552   -0.278772398    4.080731285
  12  H       1.00    0.448847749   -3.242770030   -2.499729718
  13  H       1.00    0.448847749   -3.242770030    2.499729718
  14  H       1.00    3.100738214   -1.205021658   -2.419454152
  15  H       1.00    3.100738214   -1.205021658    2.419454152

 Bond lengths in Bohr (Angstrom)

 1-2  2.892097881  1-5  2.069933136  1-6  2.069096224  1-7  2.069096224  2-3  2.719106031
     ( 1.530432290)     ( 1.095361444)     ( 1.094918569)     ( 1.094918569)     ( 1.438888946)

  2- 8  2.903104402   2- 9  2.903104402   3- 4  1.834522965   8-10  2.069222119   8-12  2.071730422
       ( 1.536256691)       ( 1.536256691)       ( 0.970787746)       ( 1.094985190)       ( 1.096312526)

  8-14  2.075368508   9-11  2.069222119   9-13  2.071730422   9-15  2.075368508
       ( 1.098237719)       ( 1.094985190)       ( 1.096312526)       ( 1.098237719)

 Bond angles

  1-2-3  104.76902697   1-2-8  110.92255387   1-2-9  110.92255387   2-1-5  110.97328220

  2- 1- 6  110.22090701   2- 1- 7  110.22090701   2- 3- 4  107.25071562   2- 8-10  110.21836376

  2- 8-12  111.57747468   2- 8-14  110.77023896   2- 9-11  110.21836376   2- 9-13  111.57747468

  2- 9-15  110.77023896   3- 2- 8  109.53648747   3- 2- 9  109.53648747   5- 1- 6  108.61190457

  5- 1- 7  108.61190457   6- 1- 7  108.12870271   8- 2- 9  110.96453384  10- 8-12  108.52192632

 10- 8-14  108.08997829  11- 9-13  108.52192632  11- 9-15  108.08997829  12- 8-14  107.54424578

 13- 9-15  107.54424578

 NUCLEAR CHARGE:                   42
 NUMBER OF PRIMITIVE AOS:         335
 NUMBER OF SYMMETRY AOS:          310
 NUMBER OF CONTRACTIONS:          215   ( 215A   )
 NUMBER OF CORE ORBITALS:           5   (   5A   )
 NUMBER OF VALENCE ORBITALS:       30   (  30A   )


 NUCLEAR REPULSION ENERGY  198.77359127


 Eigenvalues of metric

         1 0.262E-03 0.510E-03 0.539E-03 0.594E-03 0.697E-03 0.755E-03 0.210E-02 0.239E-02


 Contracted 2-electron integrals neglected if value below      1.0D-11
 AO integral compression algorithm  1   Integral accuracy      1.0D-11

     977.797 MB (compressed) written to integral file ( 41.7%)


 NUMBER OF SORTED TWO-ELECTRON INTEGRALS:  269595810.     BUFFER LENGTH:  32768
 NUMBER OF SEGMENTS:  17  SEGMENT LENGTH:   15999762      RECORD LENGTH: 524288

 Memory used in sort:      16.56 MW

 SORT1 READ   292827432. AND WROTE   238500613. INTEGRALS IN    690 RECORDS. CPU TIME:     3.32 SEC, REAL TIME:     6.87 SEC
 SORT2 READ   238500613. AND WROTE   269595810. INTEGRALS IN   3730 RECORDS. CPU TIME:     7.05 SEC, REAL TIME:    37.19 SEC

 FILE SIZES:   FILE 1:  1009.7 MBYTE,  FILE 4:  2894.1 MBYTE,   TOTAL:   3903.8 MBYTE

 OPERATOR DM      FOR CENTER  0  COORDINATES:    0.000000    0.000000    0.000000


 **********************************************************************************************************************************
 DATASETS  * FILE   NREC   LENGTH (MB)   RECORD NAMES
              1      19      926.27       500      610      700      900      950      970     1000      129      960     1100   
                                          VAR    BASINP    GEOM    SYMINP    ZMAT    AOBASIS   BASIS     P2S    ABASIS      S 
                                         1400     1410     1200     1210     1080     1600     1650     1300     1700   
                                           T        V       H0       H01     AOSYM     SMH    MOLCAS    ERIS     OPER   

 PROGRAMS   *        TOTAL       INT
 CPU TIMES  *        26.34     26.19
 REAL TIME  *        63.33 SEC
 DISK USED  *         3.90 GB      
 **********************************************************************************************************************************

 Density functional group SOGGA11=XC-SOGGA11
 Functional: XC-SOGGA11(via MFM 1.6)                                           Gradient terms: 1
 Use grid at  1800.2

 Functional: XC-SOGGA11                Factor:  1.0000

 Generated new metagrid on record  1800.2 with target accuracy 1.0D-06 and 54596 points in CPU time    1.7
 Computed new grid on record 1800.1 in CPU time    1.9
  175219 words reserved for DFT integration

 PROGRAM * UKS-SCF (Unrestricted Kohn-Sham)     Authors: W. Meyer, H.-J. Werner, P.J. Knowles, 1993

 NUMBER OF ELECTRONS:      21+   21-    SPACE SYMMETRY=1    SPIN SYMMETRY: Singlet 
 CONVERGENCE THRESHOLDS:    1.00E-05 (Density)    1.00E-06 (Energy)
 MAX. NUMBER OF ITERATIONS:       60
 INTERPOLATION TYPE:            DIIS
 INTERPOLATION STEPS:              2 (START)      1 (STEP)
 LEVEL SHIFTS:                 -0.20 (ALPHA)  -0.20 (BETA) 



 Use fine grid record 1800.2 for energy threshold  1.0D-06
 Orbital guess generated from atomic densities. Full valence occupancy:   21

 Molecular orbital dump at record        2200.2

 Initial alpha occupation  21
 Initial beta  occupation  21

 ITERATION    DDIFF          GRAD             ENERGY        2-EL.EN.            DIPOLE MOMENTS         DIIS
    1      0.000D+00      0.000D+00      -233.42954376    642.260930    0.70204   -0.80853    0.00000    0
    2      0.147D-01      0.398D-02      -233.65683610    613.898366    0.15087   -0.47685    0.00000    1
    3      0.621D-02      0.250D-02      -233.76083855    623.496978    0.35667   -0.61396    0.00000    2
    4      0.166D-02      0.445D-03      -233.76427414    623.395134    0.34033   -0.53689    0.00000    3
    5      0.189D-02      0.215D-03      -233.76624888    623.410237    0.34309   -0.52747    0.00000    4
    6      0.226D-02      0.127D-03      -233.76777990    623.015283    0.34161   -0.48039    0.00000    5
    7      0.158D-02      0.112D-03      -233.76843168    622.838526    0.33602   -0.46209    0.00000    6
    8      0.241D-02      0.931D-04      -233.76913450    622.697227    0.33265   -0.43475    0.00000    7
    9      0.462D-02      0.768D-04      -233.76956270    622.236145    0.32120   -0.37945    0.00000    8
   10      0.142D-02      0.733D-04      -233.76962096    622.547129    0.33057   -0.41255    0.00000    9
   11      0.208D-02      0.314D-04      -233.76962118    622.272805    0.32552   -0.38230    0.00000    9
   12      0.937D-03      0.590D-04      -233.76972986    622.418405    0.33440   -0.40273    0.00000    9
   13      0.963D-03      0.148D-04      -233.76975365    622.369095    0.34253   -0.40514   -0.00000    9
   14      0.297D-03      0.898D-05      -233.76975657    622.381911    0.34577   -0.40748   -0.00000    9
   15      0.508D-03      0.484D-05      -233.76975525    622.408051    0.34491   -0.40953   -0.00000    9
   16      0.224D-03      0.525D-05      -233.76975760    622.394534    0.34676   -0.40975   -0.00000    9
   17      0.753D-04      0.237D-05      -233.76975798    622.385667    0.34706   -0.40929   -0.00000    9
   18      0.134D-04      0.600D-06      -233.76975799    622.386257    0.34699   -0.40932   -0.00000    9
   19      0.127D-04      0.391D-06      -233.76975800    622.385759    0.34704   -0.40930   -0.00000    9
   20      0.612D-05      0.221D-06      -233.76975800    622.385361    0.34710   -0.40939   -0.00000    9
   21      0.422D-05      0.145D-06      -233.76975800    622.385598    0.34714   -0.40944   -0.00000    9

 Final alpha occupancy:  21
 Final beta  occupancy:  21

 !UKS STATE 1.1 Energy               -233.769758004138
 Nuclear energy                       198.77359127
 One-electron energy                 -709.67419406
 Two-electron energy                  311.19279916
 Density functional                   -34.06195438     XC-SOGGA11=-34.06195438
 Virial quotient                       -1.00819212
 !UKS STATE 1.1 Dipole moment           0.34714053    -0.40944243    -0.00000000
 Dipole moment /Debye                   0.88228544    -1.04063068    -0.00000000

 Orbital energies for positive spin:

         1.1          2.1          3.1          4.1          5.1          6.1          7.1          8.1          9.1         10.1
    -18.764005    -9.968650    -9.894390    -9.894384    -9.889273    -0.926539    -0.716324    -0.626559    -0.625893    -0.516392

        11.1         12.1         13.1         14.1         15.1         16.1         17.1         18.1         19.1         20.1
     -0.443998    -0.408631    -0.406583    -0.369720    -0.357253    -0.341451    -0.328414    -0.316819    -0.311081    -0.283347

        21.1         22.1         23.1
     -0.228165    -0.060623    -0.010760

 Orbital energies for negative spin:

         1.1          2.1          3.1          4.1          5.1          6.1          7.1          8.1          9.1         10.1
    -18.764005    -9.968650    -9.894390    -9.894384    -9.889274    -0.926539    -0.716324    -0.626559    -0.625893    -0.516392

        11.1         12.1         13.1         14.1         15.1         16.1         17.1         18.1         19.1         20.1
     -0.443998    -0.408631    -0.406583    -0.369720    -0.357253    -0.341451    -0.328414    -0.316819    -0.311081    -0.283347

        21.1         22.1         23.1
     -0.228165    -0.060620    -0.010758

 HOMO     21.1    -0.228165 =      -6.2087eV
 LUMO     22.1    -0.060623 =      -1.6496eV
 LUMO-HOMO         0.167542 =       4.5590eV

 EXPECTATION VALUE OF S**2:             0.00000000

 Occupation number threshold for canonical orbitals:  1.999000 (occupied),  0.001000 (virtual)

 Number of pseudo-canonical orbitals per symmetry:   21
 Number of active natural orbitals per symmetry:      0

 Natural orbitals saved to record    2200.2 (Orbital set 3)

 Orbital spaces for UNO-CAS (Min. occupation: 0.020  Max. occupation: 1.980):

 Closed:       21
 Active:        0


 **********************************************************************************************************************************
 DATASETS  * FILE   NREC   LENGTH (MB)   RECORD NAMES
              1      20      928.02       500      610      700      900      950      970     1000      129      960     1100   
                                          VAR    BASINP    GEOM    SYMINP    ZMAT    AOBASIS   BASIS     P2S    ABASIS      S 
                                         1400     1410     1200     1210     1080     1600     1650     1300     1700     1800   
                                           T        V       H0       H01     AOSYM     SMH    MOLCAS    ERIS     OPER     GRID   

              2       5        4.89       700     1000      520     1800     2200   
                                         GEOM     BASIS   MCVARS    GRID      UKS  

 PROGRAMS   *        TOTAL       UKS       INT
 CPU TIMES  *       175.73    149.39     26.19
 REAL TIME  *       220.94 SEC
 DISK USED  *         3.90 GB      
 **********************************************************************************************************************************


 PROGRAM * Intrinsic Basis Bonding Analysis (IBBA)          Author: G. Knizia

 Molecular orbitals read from record     2200.2  Type=UKS/ALPHA (state 1.1)
 Fock matrix read from record            2200.2  Type=UKS/TOTAL (state 1.1)
 Orbital energies read from record       2200.2  Type=UKS/ALPHA (state 1.1)
 Density matrix read from record         2200.2  Type=UKS/CHARGE (state 1.1)

 Number of core orbitals:           5 (   5 )
 Number of closed-shell orbitals:  16 (  16 )

 Basis set MINAO-AUTO-PP generated.      Number of basis functions:   35 

 Polarized AO type:                A = (O Ot + (1-O)(1-Ot)) P12
 Orthogonalization method:         Symmetric (Loewdin)
 Localization functional:          L = sum[A,i] <i|n_A|i>^4 -> max

 Localization group 1:  21 orbitals, occupancy  2.000
 Iterative localization: IB/PM,    7 iter; Final gradient 0.55E-08

 Bond order analysis:       [THRPRINT= 0.020]

   CEN ATOM   CEN ATOM     WIBERG.BO      RENORM.BO
     1   C  -   2   C       0.995364       0.992541
     1   C  -   5   H       0.957166       0.986006
     1   C  -   6   H       0.951427       0.978733
     1   C  -   7   H       0.951427       0.978733

     2   C  -   1   C       0.995364       0.992541
     2   C  -   9   C       0.994252       0.972549
     2   C  -   8   C       0.994252       0.972549
     2   C  -   3   O       0.941405       0.946508

     3   O  -   2   C       0.941405       0.946508
     3   O  -   4   H       0.858376       0.972992
     3   O  -   9   C       0.031161       0.015898
     3   O  -   8   C       0.031161       0.015898

     4   H  -   3   O       0.858376       0.972992

     5   H  -   1   C       0.957166       0.986006

     6   H  -   1   C       0.951427       0.978733

     7   H  -   1   C       0.951427       0.978733

     8   C  -   2   C       0.994252       0.972549
     8   C  -  14   H       0.956118       0.979682
     8   C  -  12   H       0.952158       0.978137
     8   C  -  10   H       0.951998       0.978250
     8   C  -   3   O       0.031161       0.015898

     9   C  -   2   C       0.994252       0.972549
     9   C  -  15   H       0.956118       0.979682
     9   C  -  13   H       0.952158       0.978137
     9   C  -  11   H       0.951998       0.978250
     9   C  -   3   O       0.031161       0.015898

    10   H  -   8   C       0.951998       0.978250

    11   H  -   9   C       0.951998       0.978250

    12   H  -   8   C       0.952158       0.978137

    13   H  -   9   C       0.952158       0.978137

    14   H  -   8   C       0.956118       0.979682

    15   H  -   9   C       0.956118       0.979682


 Valency analysis:

   CEN ATOM   TOT.VALENCE
     1   C       3.922759
     2   C       3.936130
     3   O       1.938472
     4   H       0.880146
     5   H       0.977753
     6   H       0.975031
     7   H       0.975031
     8   C       3.926046
     9   C       3.926046
    10   H       0.975227
    11   H       0.975227
    12   H       0.977344
    13   H       0.977344
    14   H       0.979497
    15   H       0.979497

 Total charge composition:

   CEN ATOM         s          p       ELECTRONS ->P.CHARGE
     1   C       3.04577    3.40963      6.45540   -0.45540
     2   C       2.93223    2.82913      5.76136    0.23864
     3   O       3.64485    4.91195      8.55681   -0.55681
     4   H       0.65380                 0.65380    0.34620
     5   H       0.85085                 0.85085    0.14915
     6   H       0.84198                 0.84198    0.15802
     7   H       0.84198                 0.84198    0.15802
     8   C       3.05387    3.41614      6.47001   -0.47001
     9   C       3.05387    3.41614      6.47001   -0.47001
    10   H       0.84261                 0.84261    0.15739
    11   H       0.84261                 0.84261    0.15739
    12   H       0.84948                 0.84948    0.15052
    13   H       0.84948                 0.84948    0.15052
    14   H       0.85681                 0.85681    0.14319
    15   H       0.85681                 0.85681    0.14319

 Total charge composition, AO contributions:

   CEN ATOM SHL      SPHERICAL COMPONENTS
     1   C  1s       1.99163
     1   C  2s       1.05415
     1   C  2p       1.03983    1.17882    1.19099

     2   C  1s       1.99322
     2   C  2s       0.93901
     2   C  2p       1.01407    0.79886    1.01620

     3   O  1s       1.99728
     3   O  2s       1.64757
     3   O  2p       1.47806    1.48440    1.94949

     4   H  1s       0.65380

     5   H  1s       0.85085

     6   H  1s       0.84198

     7   H  1s       0.84198

     8   C  1s       1.99172
     8   C  2s       1.06215
     8   C  2p       1.15884    1.15715    1.10015

     9   C  1s       1.99172
     9   C  2s       1.06215
     9   C  2p       1.15884    1.15715    1.10015

    10   H  1s       0.84261

    11   H  1s       0.84261

    12   H  1s       0.84948

    13   H  1s       0.84948

    14   H  1s       0.85681

    15   H  1s       0.85681

 Summary of localized orbital composition:   [THRPRINT= 0.020]

   ORB  GRP  ORB.ENERGY      CENTERS/CHARGES
     1   1   -18.613590      O  3   2.000
     2   1    -9.879982      C  2   2.000
     3   1    -9.782309      C  8   2.000
     4   1    -9.782309      C  9   2.000
     5   1    -9.776493      C  1   2.000
     6   1    -0.702235      O  3   1.349   H  4   0.641
     7   1    -0.660148      O  3   1.274   C  2   0.706   (other: 0.020)
     8   1    -0.526183      C  8   1.006   C  2   0.977
     9   1    -0.526183      C  9   1.006   C  2   0.977
    10   1    -0.525831      C  1   0.987   C  2   0.986   (other: 0.027)
    11   1    -0.501796      O  3   1.980   (other: 0.020)
    12   1    -0.458265      C  9   1.146   H 13   0.838
    13   1    -0.458265      C  8   1.146   H 12   0.838
    14   1    -0.457090      C  9   1.139   H 15   0.848
    15   1    -0.457090      C  8   1.139   H 14   0.848
    16   1    -0.454517      C  1   1.142   H  5   0.843
    17   1    -0.452510      C  8   1.155   H 10   0.833
    18   1    -0.452510      C  9   1.155   H 11   0.833
    19   1    -0.448376      C  1   1.155   H  7   0.833
    20   1    -0.448376      C  1   1.155   H  6   0.833
    21   1    -0.253815      O  3   1.949   (other: 0.051)

 Localized orbitals saved to record      2200.2  (orbital set 4)


 **********************************************************************************************************************************
 DATASETS  * FILE   NREC   LENGTH (MB)   RECORD NAMES
              1      20      928.02       500      610      700      900      950      970     1000      129      960     1100   
                                          VAR    BASINP    GEOM    SYMINP    ZMAT    AOBASIS   BASIS     P2S    ABASIS      S 
                                         1400     1410     1200     1210     1080     1600     1650     1300     1700     1800   
                                           T        V       H0       H01     AOSYM     SMH    MOLCAS    ERIS     OPER     GRID   

              2       5        5.27       700     1000      520     1800     2200   
                                         GEOM     BASIS   MCVARS    GRID      UKS  

 PROGRAMS   *        TOTAL      IBBA       UKS       INT
 CPU TIMES  *       175.81      0.07    149.39     26.19
 REAL TIME  *       221.14 SEC
 DISK USED  *         3.90 GB      
 **********************************************************************************************************************************
 Molecular orbitals read from record     2200.2  Type=UKS/LOCAL(IBO)  
 Occupation numbers read from record     2200.2  Type=UKS/LOCAL(IBO)  
 Orbital energies read from record       2200.2  Type=UKS/LOCAL(IBO)  
 Redundancy group numbers read from rec  2200.2  Type=UKS/BETA (state 1.1)

 IBBA/TZVP energy=      0.000000000000

        UKS-SCF 
   -233.76975800
 **********************************************************************************************************************************
 Molpro calculation terminated
