
 Primary working directories    : /tmp/sb13343
 Secondary working directories  : /tmp/sb13343
 Wavefunction directory         : /panfs/panasas01/chem/sb13343/wfu/
 Main file repository           : /tmp/sb13343/

 SHA1      : b4a5b34a9e711420743f49e6833241d17c61fb3c
 NAME      : 2099.9.b4a5b34
 ARCHNAME  : linux/x86_64_openmp
 FC        : /cm/shared/languages/GCC-6.1/bin/gfortran
 BLASLIB   : -lblas
 id        : simonbennie

 Nodes     nprocs
 node33-037    1

 Using customized tuning parameters: mindgm=1; mindgv=20; mindgc=4; mindgr=1; noblas=0; minvec=7
 default implementation of scratch files=df  

 memory,500,m
 geomtyp=xyz
 nosym
 noorient
 geometry={
 C          0.00000        0.00000        0.00000
 C          1.54025       -0.00009       -0.00004
 C         -0.51333        1.45219       -0.00005
 C         -0.51349       -0.72611       -1.25756
 C         -0.51342       -0.72599        1.25765
 H         -1.60999        1.48489       -0.00002
 H         -1.61015       -0.74237       -1.28580
 H         -1.61008       -0.74225        1.28596
 H         -0.16312        1.99638        0.88591
 H         -0.16316        1.99630       -0.88608
 H         -0.16333       -0.23096       -2.17186
 H         -0.16339       -1.76551       -1.28580
 H         -0.16332       -1.76539        1.28596
 H         -0.16320       -0.23077        2.17189
 H          1.93652       -1.02316       -0.00001
 H          1.93658        0.51138       -0.88607
 H          1.93663        0.51146        0.88592
 }
 basis={ default,svp }
 {ks,M06-2X,direct;wf,42,1,0}
 {ibba,bonds=1}

 Variables initialized (895), CPU time= 0.00 sec
 Commands  initialized (725), CPU time= 0.01 sec, 591 directives.
 Default parameters read. Elapsed time= 0.08 sec

 Checking input...
 Passed
1


                                         ***  PROGRAM SYSTEM MOLPRO  ***
                                       Copyright, TTI GmbH Stuttgart, 2015
                                    Version 2099.9 linked May 26 2017 16:03:21


 **********************************************************************************************************************************
 LABEL *                                                                                 
  64 bit serial version                                                                  DATE: 08-Jun-17          TIME: 22:35:40  
 **********************************************************************************************************************************

 SHA1:             b4a5b34a9e711420743f49e6833241d17c61fb3c
 **********************************************************************************************************************************
 SETTING GEOMTYP        =    XYZ

 Variable memory set to  500000000 words,  buffer space 

 ZSYMEL=NOSYM

 SETTING BASIS          =    SVP


 Recomputing integrals since basis changed


 Using spherical harmonics

 Library entry C      S def2-SVP             selected for orbital group  1
 Library entry C      P def2-SVP             selected for orbital group  1
 Library entry C      D def2-SVP             selected for orbital group  1
 Library entry H      S def2-SVP             selected for orbital group  2
 Library entry H      P def2-SVP             selected for orbital group  2


 PROGRAM * SEWARD (Integral evaluation for generally contracted gaussian basis sets)     Author: Roland Lindh, 1990

 Geometry written to block  1 of record 700


 Point group  C1  



 ATOMIC COORDINATES

 NR  ATOM    CHARGE       X              Y              Z

   1  C       6.00    0.000000000    0.000000000    0.000000000
   2  C       6.00    2.910650663   -0.000170075   -0.000075589
   3  C       6.00   -0.970053112    2.744241381   -0.000094486
   4  C       6.00   -0.970355468   -1.372149036   -2.376443985
   5  C       6.00   -0.970223187   -1.371922269    2.376614061
   6  H       1.00   -3.042440163    2.806035425   -0.000037795
   7  H       1.00   -3.042742519   -1.402875983   -2.429809851
   8  H       1.00   -3.042610239   -1.402649216    2.430112207
   9  H       1.00   -0.308252125    3.772611441    1.674127271
  10  H       1.00   -0.308327714    3.772460262   -1.674448524
  11  H       1.00   -0.308648968   -0.436451146   -4.104220581
  12  H       1.00   -0.308762351   -3.336330370   -2.429809851
  13  H       1.00   -0.308630071   -3.336103603    2.430112207
  14  H       1.00   -0.308403304   -0.436092098    4.104277273
  15  H       1.00    3.659492435   -1.933492182   -0.000018897
  16  H       1.00    3.659605818    0.966368146   -1.674429627
  17  H       1.00    3.659700305    0.966519324    1.674146168

 Bond lengths in Bohr (Angstrom)

  1- 2  2.910650669   1- 3  2.910646630   1- 4  2.910647475   1- 5  2.910635350   2-15  2.073282028
       ( 1.540250003)       ( 1.540247866)       ( 1.540248313)       ( 1.540241896)       ( 1.097133601)

  2-16  2.073304464   2-17  2.073302258   3- 6  2.073308129   3- 9  2.073293037   3-10  2.073300754
       ( 1.097145474)       ( 1.097144306)       ( 1.097147413)       ( 1.097139427)       ( 1.097143510)

  4- 7  2.073301752   4-11  2.073306055   4-12  2.073297296   5- 8  2.073305161   5-13  2.073300706
       ( 1.097144038)       ( 1.097146316)       ( 1.097141681)       ( 1.097145842)       ( 1.097143485)

  5-14  2.073307464
       ( 1.097147061)

 Bond angles

  1- 2-15  111.17643746   1- 2-16  111.17582452   1- 2-17  111.17607088   1- 3- 6  111.17575783

  1- 3- 9  111.17644989   1- 3-10  111.17611121   1- 4- 7  111.17614317   1- 4-11  111.17631877

  1- 4-12  111.17675056   1- 5- 8  111.17663037   1- 5-13  111.17645588   1- 5-14  111.17672823

  2-1-3  109.47117711   2-1-4  109.47117360   2-1-5  109.47107360   3-1-4  109.47144919

  3- 1- 5  109.47121161   4- 1- 5  109.47123870   6- 3- 9  107.71338639   6- 3-10  107.71391335

  7- 4-11  107.71323113   7- 4-12  107.71354587   8- 5-13  107.71328790   8- 5-14  107.71342022

  9- 3-10  107.71420977  11- 4-12  107.71378459  13- 5-14  107.71321488  15- 2-16  107.71365571

 15- 2-17  107.71411853  16- 2-17  107.71372051

 NUCLEAR CHARGE:                   42
 NUMBER OF PRIMITIVE AOS:         209
 NUMBER OF SYMMETRY AOS:          204
 NUMBER OF CONTRACTIONS:          130   ( 130A   )
 NUMBER OF CORE ORBITALS:           5   (   5A   )
 NUMBER OF VALENCE ORBITALS:       32   (  32A   )


 NUCLEAR REPULSION ENERGY  197.66618863


 Eigenvalues of metric

         1 0.175E-02 0.577E-02 0.577E-02 0.577E-02 0.252E-01 0.252E-01 0.252E-01 0.256E-01


 Contracted 2-electron integrals neglected if value below      1.0D-11
 AO integral compression algorithm  1   Integral accuracy      1.0D-11

     139.198 MB (compressed) written to integral file ( 45.3%)


 NUMBER OF SORTED TWO-ELECTRON INTEGRALS:   36256870.     BUFFER LENGTH:  32768
 NUMBER OF SEGMENTS:   3  SEGMENT LENGTH:   15998004      RECORD LENGTH: 524288

 Memory used in sort:      16.56 MW

 SORT1 READ    38373714. AND WROTE    33465425. INTEGRALS IN     97 RECORDS. CPU TIME:     0.48 SEC, REAL TIME:     0.85 SEC
 SORT2 READ    33465425. AND WROTE    36256870. INTEGRALS IN    531 RECORDS. CPU TIME:     0.79 SEC, REAL TIME:     0.97 SEC

 FILE SIZES:   FILE 1:   170.1 MBYTE,  FILE 4:   406.9 MBYTE,   TOTAL:    576.9 MBYTE

 OPERATOR DM      FOR CENTER  0  COORDINATES:    0.000000    0.000000    0.000000


 **********************************************************************************************************************************
 DATASETS  * FILE   NREC   LENGTH (MB)   RECORD NAMES
              1      19      153.85       500      610      700      900      950      970     1000      129      960     1100   
                                          VAR    BASINP    GEOM    SYMINP    ZMAT    AOBASIS   BASIS     P2S    ABASIS      S 
                                         1400     1410     1200     1210     1080     1600     1650     1300     1700   
                                           T        V       H0       H01     AOSYM     SMH    MOLCAS    ERIS     OPER   

 PROGRAMS   *        TOTAL       INT
 CPU TIMES  *         5.05      4.91
 REAL TIME  *        11.15 SEC
 DISK USED  *       577.52 MB      
 **********************************************************************************************************************************

 Density functional group M06-2X=XC-M06-2X
 Functional: XC-M06-2X(via MFM 1.6)                                            Gradient terms: 1
 Use grid at  1800.2


 Exact exchange will be calculated, factor:  0.5400

 Functional: XC-M06-2X                 Factor:  1.0000

 Generated new metagrid on record  1800.2 with target accuracy 1.0D-06 and 57016 points in CPU time    1.7
 Computed new grid on record 1800.1 in CPU time    1.9
  107513 words reserved for DFT integration

 PROGRAM * RKS-SCF (Restricted closed shell Kohn-Sham)     Authors: W. Meyer, H.-J. Werner, P.J. Knowles, 1993

 NUMBER OF ELECTRONS:      21+   21-    SPACE SYMMETRY=1    SPIN SYMMETRY: Singlet 
 CONVERGENCE THRESHOLDS:    1.00E-05 (Density)    1.00E-06 (Energy)
 MAX. NUMBER OF ITERATIONS:       60
 INTERPOLATION TYPE:            DIIS
 INTERPOLATION STEPS:              2 (START)      1 (STEP)
 LEVEL SHIFTS:                  0.00 (CLOSED)  0.00 (OPEN) 



 Use fine grid record 1800.2 for energy threshold  1.0D-06
 Orbital guess generated from atomic densities. Full valence occupancy:   21

 Molecular orbital dump at record        2100.2

 Initial occupancy:  21

 ITERATION    DDIFF          GRAD             ENERGY        2-EL.EN.            DIPOLE MOMENTS         DIIS   ORB.
    1      0.000D+00      0.000D+00      -197.38223318    560.773600   -0.00014   -0.00033   -0.00000    0    start
    2      0.000D+00      0.668D-02      -197.41572896    541.082574    0.00441   -0.01222    0.00001    1    diag
    3      0.112D-01      0.600D-02      -197.50389926    550.771163    0.00572   -0.00727    0.00000    2    diag
    4      0.573D-02      0.435D-03      -197.50420590    550.364520    0.00609   -0.00848    0.00000    3    diag
    5      0.549D-03      0.267D-03      -197.50437008    550.504697    0.00624   -0.00863    0.00000    4    diag
    6      0.254D-03      0.143D-04      -197.50437065    550.507663    0.00628   -0.00857    0.00000    5    diag
    7      0.308D-04      0.163D-05      -197.50437066    550.507802    0.00628   -0.00860    0.00000    6    diag
    8      0.257D-05      0.223D-06      -197.50437066    550.507657    0.00629   -0.00859    0.00000    0    orth

 Final occupancy:  21

 !RKS STATE 1.1 Energy               -197.504370663328
 Nuclear energy                       197.66618863
 One-electron energy                 -655.24568445
 Two-electron energy                  275.25382858
 SCF exchange energy                  -30.12078009     Factor= 0.5400
 Density functional                   -15.17870343     XC-M06-2X=-15.17870343
 Virial quotient                       -1.01334771
 !RKS STATE 1.1 Dipole moment           0.00628922    -0.00859095     0.00000217
 Dipole moment /Debye                   0.01598456    -0.02183458     0.00000552

 Orbital energies:

         1.1          2.1          3.1          4.1          5.1          6.1          7.1          8.1          9.1         10.1
    -10.557545   -10.537511   -10.537134   -10.537114   -10.537087    -0.907888    -0.761809    -0.761556    -0.761536    -0.600792

        11.1         12.1         13.1         14.1         15.1         16.1         17.1         18.1         19.1         20.1
     -0.512658    -0.512339    -0.512217    -0.460711    -0.460413    -0.421591    -0.421246    -0.420915    -0.375194    -0.374991

        21.1         22.1         23.1
     -0.374639     0.083286     0.145171

 HOMO     21.1    -0.374639 =     -10.1944eV
 LUMO     22.1     0.083286 =       2.2663eV
 LUMO-HOMO         0.457924 =      12.4608eV


 **********************************************************************************************************************************
 DATASETS  * FILE   NREC   LENGTH (MB)   RECORD NAMES
              1      20      155.67       500      610      700      900      950      970     1000      129      960     1100   
                                          VAR    BASINP    GEOM    SYMINP    ZMAT    AOBASIS   BASIS     P2S    ABASIS      S 
                                         1400     1410     1200     1210     1080     1600     1650     1300     1700     1800   
                                           T        V       H0       H01     AOSYM     SMH    MOLCAS    ERIS     OPER     GRID   

              2       5        3.39       700     1000      520     1800     2100   
                                         GEOM     BASIS   MCVARS    GRID      RKS  

 PROGRAMS   *        TOTAL        KS       INT
 CPU TIMES  *        41.27     36.22      4.91
 REAL TIME  *        47.64 SEC
 DISK USED  *       577.52 MB      
 **********************************************************************************************************************************


 PROGRAM * Intrinsic Basis Bonding Analysis (IBBA)          Author: G. Knizia

 Molecular orbitals read from record     2100.2  Type=RKS/CANONICAL (state 1.1)
 Fock matrix read from record            2100.2  Type=RKS/TOTAL (state 1.1)
 Orbital energies read from record       2100.2  Type=RKS/CANONICAL (state 1.1)
 Density matrix read from record         2100.2  Type=RKS/CHARGE (state 1.1)

 Number of core orbitals:           5 (   5 )
 Number of closed-shell orbitals:  16 (  16 )

 Basis set MINAO-AUTO-PP generated.      Number of basis functions:   37 

 Polarized AO type:                A = (O Ot + (1-O)(1-Ot)) P12
 Orthogonalization method:         Symmetric (Loewdin)
 Localization functional:          L = sum[A,i] <i|n_A|i>^4 -> max

 Localization group 1:  21 orbitals, occupancy  2.000
 Iterative localization: IB/PM,    7 iter; Final gradient 0.24E-08

 Bond order analysis:       [THRPRINT= 0.020]

   CEN ATOM   CEN ATOM     WIBERG.BO      RENORM.BO
     1   C  -   2   C       0.996563       0.997932
     1   C  -   3   C       0.996519       0.997875
     1   C  -   5   C       0.996371       0.997756
     1   C  -   4   C       0.996369       0.997755

     2   C  -   1   C       0.996563       0.997932
     2   C  -  16   H       0.966209       0.982899
     2   C  -  17   H       0.966209       0.982899
     2   C  -  15   H       0.965976       0.983051

     3   C  -   1   C       0.996519       0.997875
     3   C  -   6   H       0.966150       0.982989
     3   C  -  10   H       0.966120       0.982922
     3   C  -   9   H       0.966119       0.982922

     4   C  -   1   C       0.996369       0.997755
     4   C  -   7   H       0.966199       0.982971
     4   C  -  11   H       0.966121       0.982910
     4   C  -  12   H       0.966040       0.982979

     5   C  -   1   C       0.996371       0.997756
     5   C  -   8   H       0.966199       0.982970
     5   C  -  14   H       0.966120       0.982910
     5   C  -  13   H       0.966040       0.982978

     6   H  -   3   C       0.966150       0.982989

     7   H  -   4   C       0.966199       0.982971

     8   H  -   5   C       0.966199       0.982970

     9   H  -   3   C       0.966119       0.982922

    10   H  -   3   C       0.966120       0.982922

    11   H  -   4   C       0.966121       0.982910

    12   H  -   4   C       0.966040       0.982979

    13   H  -   5   C       0.966040       0.982978

    14   H  -   5   C       0.966120       0.982910

    15   H  -   2   C       0.965976       0.983051

    16   H  -   2   C       0.966209       0.982899

    17   H  -   2   C       0.966209       0.982899


 Valency analysis:

   CEN ATOM   TOT.VALENCE
     1   C       3.993527
     2   C       3.944513
     3   C       3.944483
     4   C       3.944458
     5   C       3.944459
     6   H       0.984824
     7   H       0.984886
     8   H       0.984886
     9   H       0.984837
    10   H       0.984837
    11   H       0.984860
    12   H       0.984731
    13   H       0.984731
    14   H       0.984860
    15   H       0.984597
    16   H       0.984939
    17   H       0.984938

 Total charge composition:

   CEN ATOM         s          p       ELECTRONS ->P.CHARGE
     1   C       2.91854    3.01761      5.93615    0.06385
     2   C       3.01451    3.37029      6.38480   -0.38480
     3   C       3.01454    3.37100      6.38554   -0.38554
     4   C       3.01463    3.37120      6.38583   -0.38583
     5   C       3.01463    3.37120      6.38583   -0.38583
     6   H       0.87681                 0.87681    0.12319
     7   H       0.87706                 0.87706    0.12294
     8   H       0.87706                 0.87706    0.12294
     9   H       0.87686                 0.87686    0.12314
    10   H       0.87686                 0.87686    0.12314
    11   H       0.87696                 0.87696    0.12304
    12   H       0.87643                 0.87643    0.12357
    13   H       0.87643                 0.87643    0.12357
    14   H       0.87696                 0.87696    0.12304
    15   H       0.87589                 0.87589    0.12411
    16   H       0.87728                 0.87728    0.12272
    17   H       0.87727                 0.87727    0.12273

 Total charge composition, AO contributions:

   CEN ATOM SHL      SPHERICAL COMPONENTS
     1   C  1s       1.99166
     1   C  2s       0.92688
     1   C  2p       1.00637    1.00591    1.00532

     2   C  1s       1.99068
     2   C  2s       1.02383
     2   C  2p       1.05504    1.15846    1.15679

     3   C  1s       1.99069
     3   C  2s       1.02385
     3   C  2p       1.14640    1.06698    1.15762

     4   C  1s       1.99069
     4   C  2s       1.02394
     4   C  2p       1.14623    1.13533    1.08964

     5   C  1s       1.99069
     5   C  2s       1.02394
     5   C  2p       1.14623    1.13534    1.08963

     6   H  1s       0.87681

     7   H  1s       0.87706

     8   H  1s       0.87706

     9   H  1s       0.87686

    10   H  1s       0.87686

    11   H  1s       0.87696

    12   H  1s       0.87643

    13   H  1s       0.87643

    14   H  1s       0.87696

    15   H  1s       0.87589

    16   H  1s       0.87728

    17   H  1s       0.87727

 Summary of localized orbital composition:   [THRPRINT= 0.020]

   ORB  GRP  ORB.ENERGY      CENTERS/CHARGES
     1   1   -10.457835      C  1   2.000
     2   1   -10.421034      C  2   2.000
     3   1   -10.420659      C  3   2.000
     4   1   -10.420630      C  4   2.000
     5   1   -10.420630      C  5   2.000
     6   1    -0.618873      C  2   1.005   C  1   0.971   (other: 0.024)
     7   1    -0.618390      C  3   1.006   C  1   0.970   (other: 0.024)
     8   1    -0.617910      C  5   1.006   C  1   0.970   (other: 0.024)
     9   1    -0.617906      C  4   1.006   C  1   0.970   (other: 0.024)
    10   1    -0.562294      C  2   1.123   H 15   0.868
    11   1    -0.561524      C  4   1.123   H 12   0.869
    12   1    -0.561522      C  5   1.123   H 13   0.869
    13   1    -0.560941      C  3   1.122   H  6   0.869
    14   1    -0.560878      C  4   1.122   H 11   0.869
    15   1    -0.560878      C  5   1.122   H 14   0.869
    16   1    -0.560851      C  3   1.122   H  9   0.869
    17   1    -0.560849      C  3   1.122   H 10   0.869
    18   1    -0.560841      C  2   1.122   H 17   0.870
    19   1    -0.560839      C  2   1.122   H 16   0.870
    20   1    -0.560801      C  4   1.122   H  7   0.870
    21   1    -0.560801      C  5   1.122   H  8   0.870

 Localized orbitals saved to record      2100.2  (orbital set 2)


 **********************************************************************************************************************************
 DATASETS  * FILE   NREC   LENGTH (MB)   RECORD NAMES
              1      20      155.67       500      610      700      900      950      970     1000      129      960     1100   
                                          VAR    BASINP    GEOM    SYMINP    ZMAT    AOBASIS   BASIS     P2S    ABASIS      S 
                                         1400     1410     1200     1210     1080     1600     1650     1300     1700     1800   
                                           T        V       H0       H01     AOSYM     SMH    MOLCAS    ERIS     OPER     GRID   

              2       5        3.53       700     1000      520     1800     2100   
                                         GEOM     BASIS   MCVARS    GRID      RKS  

 PROGRAMS   *        TOTAL      IBBA        KS       INT
 CPU TIMES  *        41.30      0.03     36.22      4.91
 REAL TIME  *        47.77 SEC
 DISK USED  *       577.52 MB      
 **********************************************************************************************************************************
 Molecular orbitals read from record     2100.2  Type=RKS/LOCAL(IBO)  
 Occupation numbers read from record     2100.2  Type=RKS/LOCAL(IBO)  
 Orbital energies read from record       2100.2  Type=RKS/LOCAL(IBO)  
 Redundancy group numbers read from rec  2100.2  Type=RKS/LOCAL(IBO)  

 IBBA/SVP energy=      0.000000000000

        KS-SCF  
   -197.50437066
 **********************************************************************************************************************************
 Molpro calculation terminated
