
 Primary working directories    : /tmp/sb13343
 Secondary working directories  : /tmp/sb13343
 Wavefunction directory         : /panfs/panasas01/chem/sb13343/wfu/
 Main file repository           : /tmp/sb13343/

 SHA1      : b4a5b34a9e711420743f49e6833241d17c61fb3c
 NAME      : 2099.9.b4a5b34
 ARCHNAME  : linux/x86_64_openmp
 FC        : /cm/shared/languages/GCC-6.1/bin/gfortran
 BLASLIB   : -lblas
 id        : simonbennie

 Nodes     nprocs
 node32-007    1

 Using customized tuning parameters: mindgm=1; mindgv=20; mindgc=4; mindgr=1; noblas=0; minvec=7
 default implementation of scratch files=df  

 memory,500,m
 geomtyp=xyz
 nosym
 noorient
 geometry={
 C          0.00000        0.00000        0.00000
 C          0.00000        0.00000        1.53307
 O          1.40344        0.00000        1.86307
 C          1.76314        0.00000        3.22887
 H         -1.02289        0.00000       -0.39176
 H          0.51995       -0.88625       -0.37815
 H          0.51995        0.88625       -0.37815
 H          2.85677        0.00000        3.25413
 H          1.40708       -0.89217        3.76475
 H          1.40708        0.89217        3.76475
 C         -0.69252       -1.26694        2.06222
 C         -0.69252        1.26694        2.06222
 H         -0.15366       -2.16088        1.72982
 H         -0.15366        2.16088        1.72982
 H         -1.72011       -1.32515        1.68649
 H         -1.72011        1.32515        1.68649
 H         -0.74365       -1.28188        3.15638
 H         -0.74365        1.28188        3.15638
 }
 basis={ default,svp }
 {ks,B-P,direct;wf,50,1,0}
 {ibba,bonds=1}

 Variables initialized (895), CPU time= 0.01 sec
 Commands  initialized (725), CPU time= 0.01 sec, 591 directives.
 Default parameters read. Elapsed time= 0.08 sec

 Checking input...
 Passed
1


                                         ***  PROGRAM SYSTEM MOLPRO  ***
                                       Copyright, TTI GmbH Stuttgart, 2015
                                    Version 2099.9 linked May 26 2017 16:03:21


 **********************************************************************************************************************************
 LABEL *                                                                                 
  64 bit serial version                                                                  DATE: 09-Jun-17          TIME: 01:40:45  
 **********************************************************************************************************************************

 SHA1:             b4a5b34a9e711420743f49e6833241d17c61fb3c
 **********************************************************************************************************************************
 SETTING GEOMTYP        =    XYZ

 Variable memory set to  500000000 words,  buffer space 

 ZSYMEL=NOSYM

 SETTING BASIS          =    SVP


 Recomputing integrals since basis changed


 Using spherical harmonics

 Library entry C      S def2-SVP             selected for orbital group  1
 Library entry C      P def2-SVP             selected for orbital group  1
 Library entry C      D def2-SVP             selected for orbital group  1
 Library entry O      S def2-SVP             selected for orbital group  2
 Library entry O      P def2-SVP             selected for orbital group  2
 Library entry O      D def2-SVP             selected for orbital group  2
 Library entry H      S def2-SVP             selected for orbital group  4
 Library entry H      P def2-SVP             selected for orbital group  4


 PROGRAM * SEWARD (Integral evaluation for generally contracted gaussian basis sets)     Author: Roland Lindh, 1990

 Geometry written to block  1 of record 700


 Point group  C1  



 ATOMIC COORDINATES

 NR  ATOM    CHARGE       X              Y              Z

   1  C       6.00    0.000000000    0.000000000    0.000000000
   2  C       6.00    0.000000000    0.000000000    2.897082430
   3  O       8.00    2.652117232    0.000000000    3.520692051
   4  C       6.00    3.331851719    0.000000000    6.101679992
   5  H       1.00   -1.932981956    0.000000000   -0.740319107
   6  H       1.00    0.982563098   -1.674769778   -0.714599934
   7  H       1.00    0.982563098    1.674769778   -0.714599934
   8  H       1.00    5.398512901    0.000000000    6.149414474
   9  H       1.00    2.658995835   -1.685956957    7.114346427
  10  H       1.00    2.658995835    1.685956957    7.114346427
  11  C       6.00   -1.308673136   -2.394169616    3.897031009
  12  C       6.00   -1.308673136    2.394169616    3.897031009
  13  H       1.00   -0.290375316   -4.083471388    3.268886045
  14  H       1.00   -0.290375316    4.083471388    3.268886045
  15  H       1.00   -3.250536804   -2.504170574    3.187004212
  16  H       1.00   -3.250536804    2.504170574    3.187004212
  17  H       1.00   -1.405294833   -2.422402125    5.964693745
  18  H       1.00   -1.405294833    2.422402125    5.964693745

 Bond lengths in Bohr (Angstrom)

 1-2  2.897082430  1-5  2.069901355  1-6  2.069042560  1-7  2.069042560  2-3  2.724447609
     ( 1.533070000)     ( 1.095344626)     ( 1.094890171)     ( 1.094890171)     ( 1.441715587)

  2-11  2.905954351   2-12  2.905954351   3- 4  2.668995640   4- 8  2.067212379   4- 9  2.078624355
       ( 1.537764818)       ( 1.537764818)       ( 1.412371669)       ( 1.093921681)       ( 1.099960639)

  4-10  2.078624355  11-13  2.070081404  11-15  2.070524757  11-17  2.070111596  12-14  2.070081404
       ( 1.099960639)       ( 1.095439904)       ( 1.095674516)       ( 1.095455880)       ( 1.095439904)

 12-16  2.070524757  12-18  2.070111596
       ( 1.095674516)       ( 1.095455880)

 Bond angles

  1- 2- 3  103.23196371   1- 2-11  110.12706952   1- 2-12  110.12706952   2- 1- 5  110.95650426

  2- 1- 6  110.20481748   2- 1- 7  110.20481748   2- 3- 4  117.98647004   2-11-13  110.26679927

  2-11-15  110.37287188   2-11-17  112.08316935   2-12-14  110.26679927   2-12-16  110.37287188

  2-12-18  112.08316935   3- 2-11  111.07703285   3- 2-12  111.07703285   3- 4- 8  106.07765410

  3- 4- 9  112.87219182   3- 4-10  112.87219182   5- 1- 6  108.65976572   5- 1- 7  108.65976572

  6- 1- 7  108.08288210   8- 4- 9  108.20190897   8- 4-10  108.20190897   9- 4-10  108.40564999

 11- 2-12  110.95103964  13-11-15  108.29648994  13-11-17  108.35544687  14-12-16  108.29648994

 14-12-18  108.35544687  15-11-17  107.33851825  16-12-18  107.33851825

 NUCLEAR CHARGE:                   50
 NUMBER OF PRIMITIVE AOS:         234
 NUMBER OF SYMMETRY AOS:          228
 NUMBER OF CONTRACTIONS:          144   ( 144A   )
 NUMBER OF CORE ORBITALS:           6   (   6A   )
 NUMBER OF VALENCE ORBITALS:       36   (  36A   )


 NUCLEAR REPULSION ENERGY  270.15500869


 Eigenvalues of metric

         1 0.176E-02 0.508E-02 0.513E-02 0.102E-01 0.124E-01 0.215E-01 0.221E-01 0.252E-01


 Contracted 2-electron integrals neglected if value below      1.0D-11
 AO integral compression algorithm  1   Integral accuracy      1.0D-11

     186.384 MB (compressed) written to integral file ( 41.3%)


 NUMBER OF SORTED TWO-ELECTRON INTEGRALS:   54502020.     BUFFER LENGTH:  32768
 NUMBER OF SEGMENTS:   4  SEGMENT LENGTH:   15999503      RECORD LENGTH: 524288

 Memory used in sort:      16.56 MW

 SORT1 READ    56333432. AND WROTE    45703433. INTEGRALS IN    132 RECORDS. CPU TIME:     0.84 SEC, REAL TIME:     1.59 SEC
 SORT2 READ    45703433. AND WROTE    54502020. INTEGRALS IN    711 RECORDS. CPU TIME:     1.30 SEC, REAL TIME:     5.86 SEC

 FILE SIZES:   FILE 1:   217.4 MBYTE,  FILE 4:   553.7 MBYTE,   TOTAL:    771.1 MBYTE

 OPERATOR DM      FOR CENTER  0  COORDINATES:    0.000000    0.000000    0.000000


 **********************************************************************************************************************************
 DATASETS  * FILE   NREC   LENGTH (MB)   RECORD NAMES
              1      19      194.45       500      610      700      900      950      970     1000      129      960     1100   
                                          VAR    BASINP    GEOM    SYMINP    ZMAT    AOBASIS   BASIS     P2S    ABASIS      S 
                                         1400     1410     1200     1210     1080     1600     1650     1300     1700   
                                           T        V       H0       H01     AOSYM     SMH    MOLCAS    ERIS     OPER   

 PROGRAMS   *        TOTAL       INT
 CPU TIMES  *         8.24      8.09
 REAL TIME  *        15.71 SEC
 DISK USED  *       771.70 MB      
 **********************************************************************************************************************************

 Density functional group B-P=B88+P86
 Functional: B88(Automatically generated (new) B88)                            Gradient terms: 1
 Functional: P86(Automatically generated (new) P86)                            Gradient terms: 1
 Use grid at  1800.2

 Functional: B88                       Factor:  1.0000
 Functional: P86                       Factor:  1.0000

 Generated new metagrid on record  1800.2 with target accuracy 1.0D-06 and 66012 points in CPU time    2.1
 Computed new grid on record 1800.1 in CPU time    2.4
  118710 words reserved for DFT integration

 PROGRAM * RKS-SCF (Restricted closed shell Kohn-Sham)     Authors: W. Meyer, H.-J. Werner, P.J. Knowles, 1993

 NUMBER OF ELECTRONS:      25+   25-    SPACE SYMMETRY=1    SPIN SYMMETRY: Singlet 
 CONVERGENCE THRESHOLDS:    1.00E-05 (Density)    1.00E-06 (Energy)
 MAX. NUMBER OF ITERATIONS:       60
 INTERPOLATION TYPE:            DIIS
 INTERPOLATION STEPS:              2 (START)      1 (STEP)
 LEVEL SHIFTS:                  0.00 (CLOSED)  0.00 (OPEN) 



 Use fine grid record 1800.2 for energy threshold  1.0D-06
 Orbital guess generated from atomic densities. Full valence occupancy:   25

 Molecular orbital dump at record        2100.2

 Initial occupancy:  25

 ITERATION    DDIFF          GRAD             ENERGY        2-EL.EN.            DIPOLE MOMENTS         DIIS   ORB.
    1      0.000D+00      0.000D+00      -272.46401512    821.566691   -0.65645    0.00000    0.62880    0    start
    2      0.000D+00      0.969D-02      -272.10311166    771.421477    0.25855   -0.00000   -0.40062    1    diag
    3      0.266D-01      0.141D-01      -272.76776431    803.591808   -0.43276    0.00000    0.42836    2    diag
    4      0.191D-01      0.158D-02      -272.77305245    801.424446   -0.27625    0.00000    0.27252    3    diag
    5      0.204D-02      0.755D-03      -272.77435040    801.544571   -0.35369    0.00000    0.30446    4    diag
    6      0.678D-03      0.180D-03      -272.77441557    801.614789   -0.33033    0.00000    0.29845    5    diag
    7      0.198D-03      0.796D-04      -272.77443159    801.603535   -0.33378    0.00000    0.30137    6    diag
    8      0.649D-04      0.748D-05      -272.77443174    801.612696   -0.33481    0.00000    0.30270    7    diag
    9      0.933D-05      0.262D-05      -272.77443172    801.615047   -0.33427    0.00000    0.30151    0    orth

 Final occupancy:  25

 !RKS STATE 1.1 Energy               -272.774431723407
 Nuclear energy                       270.15500869
 One-electron energy                 -903.57257978
 Two-electron energy                  400.80752365
 Density functional                   -40.16438429     B88=-38.37118905 P86= -1.79319524
 Virial quotient                       -1.01182735
 !RKS STATE 1.1 Dipole moment          -0.33427404     0.00000000     0.30150678
 Dipole moment /Debye                  -0.84958421     0.00000000     0.76630360

 Orbital energies:

         1.1          2.1          3.1          4.1          5.1          6.1          7.1          8.1          9.1         10.1
    -18.766446    -9.964034    -9.946063    -9.901653    -9.901642    -9.896825    -0.923501    -0.717465    -0.623692    -0.618040

        11.1         12.1         13.1         14.1         15.1         16.1         17.1         18.1         19.1         20.1
     -0.597845    -0.489043    -0.434332    -0.412199    -0.407789    -0.382631    -0.366084    -0.352892    -0.337189    -0.329496

        21.1         22.1         23.1         24.1         25.1         26.1         27.1
     -0.321043    -0.301016    -0.300361    -0.251910    -0.204066     0.032864     0.060835

 HOMO     25.1    -0.204066 =      -5.5529eV
 LUMO     26.1     0.032864 =       0.8943eV
 LUMO-HOMO         0.236930 =       6.4472eV


 **********************************************************************************************************************************
 DATASETS  * FILE   NREC   LENGTH (MB)   RECORD NAMES
              1      20      196.57       500      610      700      900      950      970     1000      129      960     1100   
                                          VAR    BASINP    GEOM    SYMINP    ZMAT    AOBASIS   BASIS     P2S    ABASIS      S 
                                         1400     1410     1200     1210     1080     1600     1650     1300     1700     1800   
                                           T        V       H0       H01     AOSYM     SMH    MOLCAS    ERIS     OPER     GRID   

              2       5        3.48       700     1000      520     1800     2100   
                                         GEOM     BASIS   MCVARS    GRID      RKS  

 PROGRAMS   *        TOTAL        KS       INT
 CPU TIMES  *        30.25     22.01      8.09
 REAL TIME  *        38.95 SEC
 DISK USED  *       771.70 MB      
 **********************************************************************************************************************************


 PROGRAM * Intrinsic Basis Bonding Analysis (IBBA)          Author: G. Knizia

 Molecular orbitals read from record     2100.2  Type=RKS/CANONICAL (state 1.1)
 Fock matrix read from record            2100.2  Type=RKS/TOTAL (state 1.1)
 Orbital energies read from record       2100.2  Type=RKS/CANONICAL (state 1.1)
 Density matrix read from record         2100.2  Type=RKS/CHARGE (state 1.1)

 Number of core orbitals:           6 (   6 )
 Number of closed-shell orbitals:  19 (  19 )

 Basis set MINAO-AUTO-PP generated.      Number of basis functions:   42 

 Polarized AO type:                A = (O Ot + (1-O)(1-Ot)) P12
 Orthogonalization method:         Symmetric (Loewdin)
 Localization functional:          L = sum[A,i] <i|n_A|i>^4 -> max

 Localization group 1:  25 orbitals, occupancy  2.000
 Iterative localization: IB/PM,    7 iter; Final gradient 0.26E-08

 Bond order analysis:       [THRPRINT= 0.020]

   CEN ATOM   CEN ATOM     WIBERG.BO      RENORM.BO
     1   C  -   2   C       0.995814       0.994549
     1   C  -   5   H       0.962323       0.984753
     1   C  -   7   H       0.958061       0.980108
     1   C  -   6   H       0.958061       0.980108

     2   C  -   1   C       0.995814       0.994549
     2   C  -  12   C       0.991445       0.969946
     2   C  -  11   C       0.991445       0.969946
     2   C  -   3   O       0.929229       0.931516

     3   O  -   4   C       0.995352       1.015074
     3   O  -   2   C       0.929229       0.931516
     3   O  -   9   H       0.035939       0.021333
     3   O  -  10   H       0.035939       0.021333
     3   O  -  12   C       0.028404       0.014831
     3   O  -  11   C       0.028404       0.014831

     4   C  -   3   O       0.995352       1.015074
     4   C  -   8   H       0.954715       0.976738
     4   C  -   9   H       0.946476       0.932466
     4   C  -  10   H       0.946476       0.932466

     5   H  -   1   C       0.962323       0.984753

     6   H  -   1   C       0.958061       0.980108

     7   H  -   1   C       0.958061       0.980108

     8   H  -   4   C       0.954715       0.976738

     9   H  -   4   C       0.946476       0.932466
     9   H  -   3   O       0.035939       0.021333

    10   H  -   4   C       0.946476       0.932466
    10   H  -   3   O       0.035939       0.021333

    11   C  -   2   C       0.991445       0.969946
    11   C  -  17   H       0.960569       0.979705
    11   C  -  15   H       0.958505       0.985103
    11   C  -  13   H       0.958471       0.980129
    11   C  -   3   O       0.028404       0.014831

    12   C  -   2   C       0.991445       0.969946
    12   C  -  18   H       0.960569       0.979705
    12   C  -  16   H       0.958505       0.985103
    12   C  -  14   H       0.958471       0.980129
    12   C  -   3   O       0.028404       0.014831

    13   H  -  11   C       0.958471       0.980129

    14   H  -  12   C       0.958471       0.980129

    15   H  -  11   C       0.958505       0.985103

    16   H  -  12   C       0.958505       0.985103

    17   H  -  11   C       0.960569       0.979705

    18   H  -  12   C       0.960569       0.979705


 Valency analysis:

   CEN ATOM   TOT.VALENCE
     1   C       3.938570
     2   C       3.938554
     3   O       2.127946
     4   C       3.869297
     5   H       0.983338
     6   H       0.980602
     7   H       0.980602
     8   H       0.977358
     9   H       0.987625
    10   H       0.987625
    11   C       3.938696
    12   C       3.938696
    13   H       0.980871
    14   H       0.980871
    15   H       0.981265
    16   H       0.981265
    17   H       0.983406
    18   H       0.983406

 Total charge composition:

   CEN ATOM         s          p       ELECTRONS ->P.CHARGE
     1   C       3.02771    3.37407      6.40178   -0.40178
     2   C       2.92786    2.83501      5.76287    0.23713
     3   O       3.60437    4.77700      8.38137   -0.38137
     4   C       3.01678    3.18349      6.20026   -0.20026
     5   H       0.87092                 0.87092    0.12908
     6   H       0.86072                 0.86072    0.13928
     7   H       0.86072                 0.86072    0.13928
     8   H       0.84953                 0.84953    0.15047
     9   H       0.88876                 0.88876    0.11124
    10   H       0.88876                 0.88876    0.11124
    11   C       3.02777    3.39339      6.42116   -0.42116
    12   C       3.02777    3.39339      6.42116   -0.42116
    13   H       0.86169                 0.86169    0.13831
    14   H       0.86169                 0.86169    0.13831
    15   H       0.86312                 0.86312    0.13688
    16   H       0.86312                 0.86312    0.13688
    17   H       0.87118                 0.87118    0.12882
    18   H       0.87118                 0.87118    0.12882

 Total charge composition, AO contributions:

   CEN ATOM SHL      SPHERICAL COMPONENTS
     1   C  1s       1.99119
     1   C  2s       1.03652
     1   C  2p       1.15890    1.17218    1.04300

     2   C  1s       1.99286
     2   C  2s       0.93500
     2   C  2p       0.80171    1.01732    1.01598

     3   O  1s       1.99731
     3   O  2s       1.60706
     3   O  2p       1.43036    1.90325    1.44340

     4   C  1s       1.99182
     4   C  2s       1.02496
     4   C  2p       1.16031    1.17016    0.85301

     5   H  1s       0.87092

     6   H  1s       0.86072

     7   H  1s       0.86072

     8   H  1s       0.84953

     9   H  1s       0.88876

    10   H  1s       0.88876

    11   C  1s       1.99124
    11   C  2s       1.03653
    11   C  2p       1.14443    1.09779    1.15117

    12   C  1s       1.99124
    12   C  2s       1.03653
    12   C  2p       1.14443    1.09779    1.15117

    13   H  1s       0.86169

    14   H  1s       0.86169

    15   H  1s       0.86312

    16   H  1s       0.86312

    17   H  1s       0.87118

    18   H  1s       0.87118

 Summary of localized orbital composition:   [THRPRINT= 0.020]

   ORB  GRP  ORB.ENERGY      CENTERS/CHARGES
     1   1   -18.628548      O  3   2.000
     2   1    -9.875506      C  2   2.000
     3   1    -9.839383      C  4   2.000
     4   1    -9.790398      C 12   2.000
     5   1    -9.790398      C 11   2.000
     6   1    -9.784927      C  1   2.000
     7   1    -0.692023      O  3   1.244   C  4   0.747
     8   1    -0.664668      O  3   1.269   C  2   0.705   (other: 0.026)
     9   1    -0.516877      C 11   1.007   C  2   0.976
    10   1    -0.516877      C 12   1.007   C  2   0.976
    11   1    -0.514426      C  1   0.990   C  2   0.986   (other: 0.024)
    12   1    -0.473635      O  3   1.958   (other: 0.042)
    13   1    -0.464793      C  4   1.131   H 10   0.867
    14   1    -0.464793      C  4   1.131   H  9   0.867
    15   1    -0.463018      C  4   1.149   H  8   0.842
    16   1    -0.451177      C 11   1.129   H 15   0.854
    17   1    -0.451177      C 12   1.129   H 16   0.854
    18   1    -0.449414      C 12   1.126   H 18   0.862
    19   1    -0.449414      C 11   1.126   H 17   0.862
    20   1    -0.447422      C  1   1.123   H  5   0.863
    21   1    -0.445469      C 11   1.136   H 13   0.853
    22   1    -0.445469      C 12   1.136   H 14   0.853
    23   1    -0.440541      C  1   1.136   H  7   0.852
    24   1    -0.440541      C  1   1.136   H  6   0.852
    25   1    -0.246361      O  3   1.903   C  2   0.021   (other: 0.076)

 Localized orbitals saved to record      2100.2  (orbital set 2)


 **********************************************************************************************************************************
 DATASETS  * FILE   NREC   LENGTH (MB)   RECORD NAMES
              1      20      196.57       500      610      700      900      950      970     1000      129      960     1100   
                                          VAR    BASINP    GEOM    SYMINP    ZMAT    AOBASIS   BASIS     P2S    ABASIS      S 
                                         1400     1410     1200     1210     1080     1600     1650     1300     1700     1800   
                                           T        V       H0       H01     AOSYM     SMH    MOLCAS    ERIS     OPER     GRID   

              2       5        3.65       700     1000      520     1800     2100   
                                         GEOM     BASIS   MCVARS    GRID      RKS  

 PROGRAMS   *        TOTAL      IBBA        KS       INT
 CPU TIMES  *        30.32      0.06     22.01      8.09
 REAL TIME  *        39.13 SEC
 DISK USED  *       771.70 MB      
 **********************************************************************************************************************************
 Molecular orbitals read from record     2100.2  Type=RKS/LOCAL(IBO)  
 Occupation numbers read from record     2100.2  Type=RKS/LOCAL(IBO)  
 Orbital energies read from record       2100.2  Type=RKS/LOCAL(IBO)  
 Redundancy group numbers read from rec  2100.2  Type=RKS/LOCAL(IBO)  

 IBBA/SVP energy=      0.000000000000

        KS-SCF  
   -272.77443172
 **********************************************************************************************************************************
 Molpro calculation terminated
