
 Primary working directories    : /tmp/sb13343
 Secondary working directories  : /tmp/sb13343
 Wavefunction directory         : /panfs/panasas01/chem/sb13343/wfu/
 Main file repository           : /tmp/sb13343/

 SHA1      : b4a5b34a9e711420743f49e6833241d17c61fb3c
 NAME      : 2099.9.b4a5b34
 ARCHNAME  : linux/x86_64_openmp
 FC        : /cm/shared/languages/GCC-6.1/bin/gfortran
 BLASLIB   : -lblas
 id        : simonbennie

 Nodes     nprocs
 node32-029    1

 Using customized tuning parameters: mindgm=1; mindgv=20; mindgc=4; mindgr=1; noblas=0; minvec=7
 default implementation of scratch files=df  

 memory,500,m
 geomtyp=xyz
 nosym
 noorient
 geometry={
 C          0.00000        0.00000        0.00000
 H          0.00000        0.00000        1.10056
 C          1.46209        0.00000       -0.46855
 C         -0.73105       -1.26621       -0.46855
 C         -0.73105        1.26621       -0.46855
 H          1.52118        0.00000       -1.56505
 H         -0.76059       -1.31738       -1.56505
 H         -0.76059        1.31738       -1.56505
 H          1.99755        0.88622       -0.10723
 H          1.99755       -0.88622       -0.10723
 H         -0.23129       -2.17304       -0.10723
 H         -1.76626       -1.28682       -0.10723
 H         -1.76626        1.28682       -0.10723
 H         -0.23129        2.17304       -0.10723
 }
 basis={ default,svp }
 {uks,B88X,direct;wf,34,1,0}
 {ibba,bonds=1}

 Variables initialized (895), CPU time= 0.01 sec
 Commands  initialized (725), CPU time= 0.01 sec, 591 directives.
 Default parameters read. Elapsed time= 0.08 sec

 Checking input...
 Passed
1


                                         ***  PROGRAM SYSTEM MOLPRO  ***
                                       Copyright, TTI GmbH Stuttgart, 2015
                                    Version 2099.9 linked May 26 2017 16:03:21


 **********************************************************************************************************************************
 LABEL *                                                                                 
  64 bit serial version                                                                  DATE: 09-Jun-17          TIME: 00:06:53  
 **********************************************************************************************************************************

 SHA1:             b4a5b34a9e711420743f49e6833241d17c61fb3c
 **********************************************************************************************************************************
 SETTING GEOMTYP        =    XYZ

 Variable memory set to  500000000 words,  buffer space 

 ZSYMEL=NOSYM

 SETTING BASIS          =    SVP


 Recomputing integrals since basis changed


 Using spherical harmonics

 Library entry C      S def2-SVP             selected for orbital group  1
 Library entry C      P def2-SVP             selected for orbital group  1
 Library entry C      D def2-SVP             selected for orbital group  1
 Library entry H      S def2-SVP             selected for orbital group  2
 Library entry H      P def2-SVP             selected for orbital group  2


 PROGRAM * SEWARD (Integral evaluation for generally contracted gaussian basis sets)     Author: Roland Lindh, 1990

 Geometry written to block  1 of record 700


 Point group  C1  



 ATOMIC COORDINATES

 NR  ATOM    CHARGE       X              Y              Z

   1  C       6.00    0.000000000    0.000000000    0.000000000
   2  H       1.00    0.000000000    0.000000000    2.079756984
   3  C       6.00    2.762949669    0.000000000   -0.885431176
   4  C       6.00   -1.381484283   -2.392790116   -0.885431176
   5  C       6.00   -1.381484283    2.392790116   -0.885431176
   6  H       1.00    2.874613586    0.000000000   -2.957515871
   7  H       1.00   -1.437306793   -2.489487402   -2.957515871
   8  H       1.00   -1.437306793    2.489487402   -2.957515871
   9  H       1.00    3.774822420    1.674713086   -0.202635332
  10  H       1.00    3.774822420   -1.674713086   -0.202635332
  11  H       1.00   -0.437074755   -4.106450458   -0.202635332
  12  H       1.00   -3.337747665   -2.431737372   -0.202635332
  13  H       1.00   -3.337747665    2.431737372   -0.202635332
  14  H       1.00   -0.437074755    4.106450458   -0.202635332

 Bond lengths in Bohr (Angstrom)

 1-2  2.079756984  1-3  2.901358172  1-4  2.901367218  1-5  2.901367218  3-6  2.075091279
     ( 1.100560000)     ( 1.535332625)     ( 1.535337412)     ( 1.535337412)     ( 1.098091015)

  3- 9  2.072380406   3-10  2.072380406   4- 7  2.075090722   4-11  2.072378172   4-12  2.072364222
       ( 1.096656483)       ( 1.096656483)       ( 1.098090721)       ( 1.096655301)       ( 1.096647919)

  5- 8  2.075090722   5-13  2.072364222   5-14  2.072378172
       ( 1.098090721)       ( 1.096647919)       ( 1.096655301)

 Bond angles

  1- 3- 6  110.85354902   1- 3- 9  111.37220114   1- 3-10  111.37220114   1- 4- 7  110.85320625

  1- 4-11  111.37204414   1- 4-12  111.37216555   1- 5- 8  110.85320625   1- 5-13  111.37216555

  1- 5-14  111.37204414   2- 1- 3  107.76888332   2- 1- 4  107.76882608   2- 1- 5  107.76882608

  3-1-4  111.11870751   3-1-5  111.11870751   4-1-5  111.11845005   6-3-9  107.62119374

  6- 3-10  107.62119374   7- 4-11  107.62125572   7- 4-12  107.62162102   8- 5-13  107.62162102

  8- 5-14  107.62125572   9- 3-10  107.82352924  11- 4-12  107.82360822  13- 5-14  107.82360822

 NUCLEAR CHARGE:                   34
 NUMBER OF PRIMITIVE AOS:         170
 NUMBER OF SYMMETRY AOS:          166
 NUMBER OF CONTRACTIONS:          106   ( 106A   )
 NUMBER OF CORE ORBITALS:           4   (   4A   )
 NUMBER OF VALENCE ORBITALS:       26   (  26A   )


 NUCLEAR REPULSION ENERGY  134.07051350


 Eigenvalues of metric

         1 0.225E-02 0.614E-02 0.614E-02 0.233E-01 0.256E-01 0.268E-01 0.268E-01 0.277E-01


 Contracted 2-electron integrals neglected if value below      1.0D-11
 AO integral compression algorithm  1   Integral accuracy      1.0D-11

     64.750 MB (compressed) written to integral file ( 46.7%)


 NUMBER OF SORTED TWO-ELECTRON INTEGRALS:   16082956.     BUFFER LENGTH:  32768
 NUMBER OF SEGMENTS:   2  SEGMENT LENGTH:   15997996      RECORD LENGTH: 524288

 Memory used in sort:      16.56 MW

 SORT1 READ    17384690. AND WROTE    14795173. INTEGRALS IN     44 RECORDS. CPU TIME:     0.26 SEC, REAL TIME:     0.53 SEC
 SORT2 READ    14795173. AND WROTE    16082956. INTEGRALS IN    247 RECORDS. CPU TIME:     0.48 SEC, REAL TIME:     0.61 SEC

 FILE SIZES:   FILE 1:    95.4 MBYTE,  FILE 4:   184.6 MBYTE,   TOTAL:    279.9 MBYTE

 OPERATOR DM      FOR CENTER  0  COORDINATES:    0.000000    0.000000    0.000000


 **********************************************************************************************************************************
 DATASETS  * FILE   NREC   LENGTH (MB)   RECORD NAMES
              1      19       87.57       500      610      700      900      950      970     1000      129      960     1100   
                                          VAR    BASINP    GEOM    SYMINP    ZMAT    AOBASIS   BASIS     P2S    ABASIS      S 
                                         1400     1410     1200     1210     1080     1600     1650     1300     1700   
                                           T        V       H0       H01     AOSYM     SMH    MOLCAS    ERIS     OPER   

 PROGRAMS   *        TOTAL       INT
 CPU TIMES  *         2.93      2.78
 REAL TIME  *         3.92 SEC
 DISK USED  *       280.45 MB      
 **********************************************************************************************************************************

 Density functional group B88X=B88
 Functional: B88(Automatically generated (new) B88)                            Gradient terms: 1
 Use grid at  1800.2

 Functional: B88                       Factor:  1.0000

 Generated new metagrid on record  1800.2 with target accuracy 1.0D-06 and 45620 points in CPU time    1.2
 Computed new grid on record 1800.1 in CPU time    1.3
   88342 words reserved for DFT integration

 PROGRAM * UKS-SCF (Unrestricted Kohn-Sham)     Authors: W. Meyer, H.-J. Werner, P.J. Knowles, 1993

 NUMBER OF ELECTRONS:      17+   17-    SPACE SYMMETRY=1    SPIN SYMMETRY: Singlet 
 CONVERGENCE THRESHOLDS:    1.00E-05 (Density)    1.00E-06 (Energy)
 MAX. NUMBER OF ITERATIONS:       60
 INTERPOLATION TYPE:            DIIS
 INTERPOLATION STEPS:              2 (START)      1 (STEP)
 LEVEL SHIFTS:                 -0.20 (ALPHA)  -0.20 (BETA) 



 Use fine grid record 1800.2 for energy threshold  1.0D-06
 Orbital guess generated from atomic densities. Full valence occupancy:   17

 Molecular orbital dump at record        2200.2

 Initial alpha occupation  17
 Initial beta  occupation  17

 ITERATION    DDIFF          GRAD             ENERGY        2-EL.EN.            DIPOLE MOMENTS         DIIS
    1      0.000D+00      0.000D+00      -156.87840934    433.319020   -0.00015   -0.00000   -0.01415    0
    2      0.149D-01      0.637D-02      -157.09481064    412.608942   -0.00022   -0.00000    0.00570    1
    3      0.488D-02      0.318D-02      -157.14875369    418.461619   -0.00022   -0.00000    0.04620    2
    4      0.123D-02      0.276D-03      -157.14961624    418.234034   -0.00023   -0.00000    0.03806    3
    5      0.725D-03      0.113D-03      -157.14980833    418.185451   -0.00024   -0.00000    0.04056    4
    6      0.387D-03      0.449D-04      -157.14984239    418.145242   -0.00025   -0.00000    0.04409    5
    7      0.905D-04      0.140D-04      -157.14984483    418.149220   -0.00025   -0.00000    0.04111    6
    8      0.230D-04      0.333D-05      -157.14984498    418.148486   -0.00025   -0.00000    0.04247    6
    9      0.570D-05      0.734D-06      -157.14984499    418.148548   -0.00026   -0.00000    0.04221    6
   10      0.128D-05      0.148D-06      -157.14984499    418.148509   -0.00026   -0.00000    0.04225    7

 Final alpha occupancy:  17
 Final beta  occupancy:  17

 !UKS STATE 1.1 Energy               -157.149844994130
 Nuclear energy                       134.07051350
 One-electron energy                 -476.08990198
 Two-electron energy                  209.07425430
 Density functional                   -24.20471082     B88=-24.20471082
 Virial quotient                       -1.00647886
 !UKS STATE 1.1 Dipole moment          -0.00025527    -0.00000000     0.04224780
 Dipole moment /Debye                  -0.00064878    -0.00000000     0.10737616

 Orbital energies for positive spin:

         1.1          2.1          3.1          4.1          5.1          6.1          7.1          8.1          9.1         10.1
     -9.886792    -9.876164    -9.876148    -9.876127    -0.678123    -0.567638    -0.567633    -0.457072    -0.373284    -0.343963

        11.1         12.1         13.1         14.1         15.1         16.1         17.1         18.1         19.1
     -0.343955    -0.300208    -0.300197    -0.281792    -0.250349    -0.250348    -0.244694     0.059208     0.101975

 Orbital energies for negative spin:

         1.1          2.1          3.1          4.1          5.1          6.1          7.1          8.1          9.1         10.1
     -9.886792    -9.876164    -9.876148    -9.876127    -0.678123    -0.567638    -0.567633    -0.457072    -0.373284    -0.343963

        11.1         12.1         13.1         14.1         15.1         16.1         17.1         18.1         19.1
     -0.343955    -0.300208    -0.300197    -0.281792    -0.250349    -0.250348    -0.244694     0.059208     0.101975

 HOMO     17.1    -0.244694 =      -6.6585eV
 LUMO     18.1     0.059208 =       1.6111eV
 LUMO-HOMO         0.303902 =       8.2696eV

 EXPECTATION VALUE OF S**2:            -0.00000000

 Natural orbitals saved to record    2200.2 (Orbital set 3)

 Orbital spaces for UNO-CAS (Min. occupation: 0.020  Max. occupation: 1.980):

 Closed:       17
 Active:        0


 **********************************************************************************************************************************
 DATASETS  * FILE   NREC   LENGTH (MB)   RECORD NAMES
              1      20       89.03       500      610      700      900      950      970     1000      129      960     1100   
                                          VAR    BASINP    GEOM    SYMINP    ZMAT    AOBASIS   BASIS     P2S    ABASIS      S 
                                         1400     1410     1200     1210     1080     1600     1650     1300     1700     1800   
                                           T        V       H0       H01     AOSYM     SMH    MOLCAS    ERIS     OPER     GRID   

              2       5        3.45       700     1000      520     1800     2200   
                                         GEOM     BASIS   MCVARS    GRID      UKS  

 PROGRAMS   *        TOTAL       UKS       INT
 CPU TIMES  *        19.17     16.24      2.78
 REAL TIME  *        21.26 SEC
 DISK USED  *       280.45 MB      
 **********************************************************************************************************************************


 PROGRAM * Intrinsic Basis Bonding Analysis (IBBA)          Author: G. Knizia

 Molecular orbitals read from record     2200.2  Type=UKS/ALPHA (state 1.1)
 Fock matrix read from record            2200.2  Type=UKS/TOTAL (state 1.1)
 Orbital energies read from record       2200.2  Type=UKS/ALPHA (state 1.1)
 Density matrix read from record         2200.2  Type=UKS/CHARGE (state 1.1)

 Number of core orbitals:           4 (   4 )
 Number of closed-shell orbitals:  13 (  13 )

 Basis set MINAO-AUTO-PP generated.      Number of basis functions:   30 

 Polarized AO type:                A = (O Ot + (1-O)(1-Ot)) P12
 Orthogonalization method:         Symmetric (Loewdin)
 Localization functional:          L = sum[A,i] <i|n_A|i>^4 -> max

 Localization group 1:  17 orbitals, occupancy  2.000
 Iterative localization: IB/PM,    7 iter; Final gradient 0.67E-09

 Bond order analysis:       [THRPRINT= 0.020]

   CEN ATOM   CEN ATOM     WIBERG.BO      RENORM.BO
     1   C  -   3   C       1.014875       1.011403
     1   C  -   5   C       1.014864       1.011389
     1   C  -   4   C       1.014864       1.011389
     1   C  -   2   H       0.935109       0.954840

     2   H  -   1   C       0.935109       0.954840

     3   C  -   1   C       1.014875       1.011403
     3   C  -   9   H       0.968070       0.982559
     3   C  -  10   H       0.968070       0.982559
     3   C  -   6   H       0.966007       0.977039

     4   C  -   1   C       1.014864       1.011389
     4   C  -  11   H       0.968078       0.982562
     4   C  -  12   H       0.968065       0.982564
     4   C  -   7   H       0.965992       0.977035

     5   C  -   1   C       1.014864       1.011389
     5   C  -  14   H       0.968078       0.982562
     5   C  -  13   H       0.968065       0.982564
     5   C  -   8   H       0.965992       0.977035

     6   H  -   3   C       0.966007       0.977039

     7   H  -   4   C       0.965992       0.977035

     8   H  -   5   C       0.965992       0.977035

     9   H  -   3   C       0.968070       0.982559

    10   H  -   3   C       0.968070       0.982559

    11   H  -   4   C       0.968078       0.982562

    12   H  -   4   C       0.968065       0.982564

    13   H  -   5   C       0.968065       0.982564

    14   H  -   5   C       0.968078       0.982562


 Valency analysis:

   CEN ATOM   TOT.VALENCE
     1   C       3.985654
     2   H       0.989399
     3   C       3.954691
     4   C       3.954671
     5   C       3.954671
     6   H       0.988073
     7   H       0.988059
     8   H       0.988059
     9   H       0.987168
    10   H       0.987168
    11   H       0.987174
    12   H       0.987159
    13   H       0.987159
    14   H       0.987174

 Total charge composition:

   CEN ATOM         s          p       ELECTRONS ->P.CHARGE
     1   C       2.95004    3.10288      6.05292   -0.05292
     2   H       0.89704                 0.89704    0.10296
     3   C       3.01720    3.33525      6.35246   -0.35246
     4   C       3.01720    3.33532      6.35252   -0.35252
     5   C       3.01720    3.33532      6.35252   -0.35252
     6   H       0.89079                 0.89079    0.10921
     7   H       0.89073                 0.89073    0.10927
     8   H       0.89073                 0.89073    0.10927
     9   H       0.88672                 0.88672    0.11328
    10   H       0.88672                 0.88672    0.11328
    11   H       0.88675                 0.88675    0.11325
    12   H       0.88668                 0.88668    0.11332
    13   H       0.88668                 0.88668    0.11332
    14   H       0.88675                 0.88675    0.11325

 Total charge composition, AO contributions:

   CEN ATOM SHL      SPHERICAL COMPONENTS
     1   C  1s       1.99189
     1   C  2s       0.95815
     1   C  2p       1.00401    1.00402    1.09485

     2   H  1s       0.89704

     3   C  1s       1.99131
     3   C  2s       1.02589
     3   C  2p       1.06069    1.14277    1.13180

     4   C  1s       1.99131
     4   C  2s       1.02589
     4   C  2p       1.12228    1.08118    1.13186

     5   C  1s       1.99131
     5   C  2s       1.02589
     5   C  2p       1.12228    1.08118    1.13186

     6   H  1s       0.89079

     7   H  1s       0.89073

     8   H  1s       0.89073

     9   H  1s       0.88672

    10   H  1s       0.88672

    11   H  1s       0.88675

    12   H  1s       0.88668

    13   H  1s       0.88668

    14   H  1s       0.88675

 Summary of localized orbital composition:   [THRPRINT= 0.020]

   ORB  GRP  ORB.ENERGY      CENTERS/CHARGES
     1   1    -9.786692      C  1   2.000
     2   1    -9.766186      C  3   2.000
     3   1    -9.766165      C  5   2.000
     4   1    -9.766165      C  4   2.000
     5   1    -0.456515      C  3   1.007   C  1   0.976
     6   1    -0.456509      C  4   1.007   C  1   0.976
     7   1    -0.456509      C  5   1.007   C  1   0.976
     8   1    -0.402591      C  3   1.111   H 10   0.879
     9   1    -0.402591      C  3   1.111   H  9   0.879
    10   1    -0.402586      C  4   1.111   H 11   0.880
    11   1    -0.402586      C  5   1.111   H 14   0.880
    12   1    -0.402578      C  5   1.111   H 13   0.879
    13   1    -0.402578      C  4   1.111   H 12   0.879
    14   1    -0.402251      C  3   1.108   H  6   0.883
    15   1    -0.402228      C  5   1.108   H  8   0.883
    16   1    -0.402228      C  4   1.108   H  7   0.883
    17   1    -0.397552      C  1   1.084   H  2   0.884   (other: 0.032)

 Localized orbitals saved to record      2200.2  (orbital set 4)


 **********************************************************************************************************************************
 DATASETS  * FILE   NREC   LENGTH (MB)   RECORD NAMES
              1      20       89.03       500      610      700      900      950      970     1000      129      960     1100   
                                          VAR    BASINP    GEOM    SYMINP    ZMAT    AOBASIS   BASIS     P2S    ABASIS      S 
                                         1400     1410     1200     1210     1080     1600     1650     1300     1700     1800   
                                           T        V       H0       H01     AOSYM     SMH    MOLCAS    ERIS     OPER     GRID   

              2       5        3.54       700     1000      520     1800     2200   
                                         GEOM     BASIS   MCVARS    GRID      UKS  

 PROGRAMS   *        TOTAL      IBBA       UKS       INT
 CPU TIMES  *        19.21      0.04     16.24      2.78
 REAL TIME  *        21.40 SEC
 DISK USED  *       280.45 MB      
 **********************************************************************************************************************************
 Molecular orbitals read from record     2200.2  Type=UKS/LOCAL(IBO)  
 Occupation numbers read from record     2200.2  Type=UKS/LOCAL(IBO)  
 Orbital energies read from record       2200.2  Type=UKS/LOCAL(IBO)  
 Redundancy group numbers read from rec  2200.2  Type=UKS/BETA (state 1.1)

 IBBA/SVP energy=      0.000000000000

        UKS-SCF 
   -157.14984499
 **********************************************************************************************************************************
 Molpro calculation terminated
