
 Primary working directories    : /tmp/sb13343
 Secondary working directories  : /tmp/sb13343
 Wavefunction directory         : /panfs/panasas01/chem/sb13343/wfu/
 Main file repository           : /tmp/sb13343/

 SHA1      : b4a5b34a9e711420743f49e6833241d17c61fb3c
 NAME      : 2099.9.b4a5b34
 ARCHNAME  : linux/x86_64_openmp
 FC        : /cm/shared/languages/GCC-6.1/bin/gfortran
 BLASLIB   : -lblas
 id        : simonbennie

 Nodes     nprocs
 node32-019    1

 Using customized tuning parameters: mindgm=1; mindgv=20; mindgc=4; mindgr=1; noblas=0; minvec=7
 default implementation of scratch files=df  

 memory,500,m
 geomtyp=xyz
 nosym
 noorient
 geometry={
 C          0.00000        0.00000        0.00000
 H          0.00000        0.00000        1.10056
 C          1.46209        0.00000       -0.46855
 C         -0.73105       -1.26621       -0.46855
 C         -0.73105        1.26621       -0.46855
 H          1.52118        0.00000       -1.56505
 H         -0.76059       -1.31738       -1.56505
 H         -0.76059        1.31738       -1.56505
 H          1.99755        0.88622       -0.10723
 H          1.99755       -0.88622       -0.10723
 H         -0.23129       -2.17304       -0.10723
 H         -1.76626       -1.28682       -0.10723
 H         -1.76626        1.28682       -0.10723
 H         -0.23129        2.17304       -0.10723
 }
 basis={ default,sto-3g }
 {uks,PW91,direct;wf,34,1,0}
 {ibba,bonds=1}

 Variables initialized (895), CPU time= 0.00 sec
 Commands  initialized (725), CPU time= 0.02 sec, 591 directives.
 Default parameters read. Elapsed time= 0.08 sec

 Checking input...
 Passed
1


                                         ***  PROGRAM SYSTEM MOLPRO  ***
                                       Copyright, TTI GmbH Stuttgart, 2015
                                    Version 2099.9 linked May 26 2017 16:03:21


 **********************************************************************************************************************************
 LABEL *                                                                                 
  64 bit serial version                                                                  DATE: 08-Jun-17          TIME: 23:53:33  
 **********************************************************************************************************************************

 SHA1:             b4a5b34a9e711420743f49e6833241d17c61fb3c
 **********************************************************************************************************************************
 SETTING GEOMTYP        =    XYZ

 Variable memory set to  500000000 words,  buffer space 

 ZSYMEL=NOSYM

 SETTING BASIS          =    STO-3G


 Recomputing integrals since basis changed


 Using spherical harmonics

 Library entry C      S STO-3G               selected for orbital group  1
 Library entry C      P STO-3G               selected for orbital group  1
 Library entry H      S STO-3G               selected for orbital group  2


 PROGRAM * SEWARD (Integral evaluation for generally contracted gaussian basis sets)     Author: Roland Lindh, 1990

 Geometry written to block  1 of record 700


 Point group  C1  



 ATOMIC COORDINATES

 NR  ATOM    CHARGE       X              Y              Z

   1  C       6.00    0.000000000    0.000000000    0.000000000
   2  H       1.00    0.000000000    0.000000000    2.079756984
   3  C       6.00    2.762949669    0.000000000   -0.885431176
   4  C       6.00   -1.381484283   -2.392790116   -0.885431176
   5  C       6.00   -1.381484283    2.392790116   -0.885431176
   6  H       1.00    2.874613586    0.000000000   -2.957515871
   7  H       1.00   -1.437306793   -2.489487402   -2.957515871
   8  H       1.00   -1.437306793    2.489487402   -2.957515871
   9  H       1.00    3.774822420    1.674713086   -0.202635332
  10  H       1.00    3.774822420   -1.674713086   -0.202635332
  11  H       1.00   -0.437074755   -4.106450458   -0.202635332
  12  H       1.00   -3.337747665   -2.431737372   -0.202635332
  13  H       1.00   -3.337747665    2.431737372   -0.202635332
  14  H       1.00   -0.437074755    4.106450458   -0.202635332

 Bond lengths in Bohr (Angstrom)

 1-2  2.079756984  1-3  2.901358172  1-4  2.901367218  1-5  2.901367218  3-6  2.075091279
     ( 1.100560000)     ( 1.535332625)     ( 1.535337412)     ( 1.535337412)     ( 1.098091015)

  3- 9  2.072380406   3-10  2.072380406   4- 7  2.075090722   4-11  2.072378172   4-12  2.072364222
       ( 1.096656483)       ( 1.096656483)       ( 1.098090721)       ( 1.096655301)       ( 1.096647919)

  5- 8  2.075090722   5-13  2.072364222   5-14  2.072378172
       ( 1.098090721)       ( 1.096647919)       ( 1.096655301)

 Bond angles

  1- 3- 6  110.85354902   1- 3- 9  111.37220114   1- 3-10  111.37220114   1- 4- 7  110.85320625

  1- 4-11  111.37204414   1- 4-12  111.37216555   1- 5- 8  110.85320625   1- 5-13  111.37216555

  1- 5-14  111.37204414   2- 1- 3  107.76888332   2- 1- 4  107.76882608   2- 1- 5  107.76882608

  3-1-4  111.11870751   3-1-5  111.11870751   4-1-5  111.11845005   6-3-9  107.62119374

  6- 3-10  107.62119374   7- 4-11  107.62125572   7- 4-12  107.62162102   8- 5-13  107.62162102

  8- 5-14  107.62125572   9- 3-10  107.82352924  11- 4-12  107.82360822  13- 5-14  107.82360822

 NUCLEAR CHARGE:                   34
 NUMBER OF PRIMITIVE AOS:          90
 NUMBER OF SYMMETRY AOS:           90
 NUMBER OF CONTRACTIONS:           30   (  30A   )
 NUMBER OF CORE ORBITALS:           4   (   4A   )
 NUMBER OF VALENCE ORBITALS:       26   (  26A   )


 NUCLEAR REPULSION ENERGY  134.07051350


 Eigenvalues of metric

         1 0.203E+00 0.229E+00 0.229E+00 0.287E+00 0.356E+00 0.362E+00 0.364E+00 0.364E+00


 Contracted 2-electron integrals neglected if value below      1.0D-11
 AO integral compression algorithm  1   Integral accuracy      1.0D-11

     1.049 MB (compressed) written to integral file ( 95.2%)


 NUMBER OF SORTED TWO-ELECTRON INTEGRALS:     108345.     BUFFER LENGTH:  32768
 NUMBER OF SEGMENTS:   1  SEGMENT LENGTH:     108345      RECORD LENGTH: 524288

 Memory used in sort:       0.67 MW

 SORT1 READ      123158. AND WROTE      102148. INTEGRALS IN      1 RECORDS. CPU TIME:     0.00 SEC, REAL TIME:     0.01 SEC
 SORT2 READ      102148. AND WROTE      108345. INTEGRALS IN      4 RECORDS. CPU TIME:     0.02 SEC, REAL TIME:     0.01 SEC

 FILE SIZES:   FILE 1:    31.3 MBYTE,  FILE 4:     4.2 MBYTE,   TOTAL:     35.5 MBYTE

 OPERATOR DM      FOR CENTER  0  COORDINATES:    0.000000    0.000000    0.000000


 **********************************************************************************************************************************
 DATASETS  * FILE   NREC   LENGTH (MB)   RECORD NAMES
              1      19       30.69       500      610      700      900      950      970     1000      129      960     1100   
                                          VAR    BASINP    GEOM    SYMINP    ZMAT    AOBASIS   BASIS     P2S    ABASIS      S 
                                         1400     1410     1200     1210     1080     1600     1650     1300     1700   
                                           T        V       H0       H01     AOSYM     SMH    MOLCAS    ERIS     OPER   

 PROGRAMS   *        TOTAL       INT
 CPU TIMES  *         0.50      0.36
 REAL TIME  *         0.83 SEC
 DISK USED  *        35.98 MB      
 **********************************************************************************************************************************

 Density functional group PW91=PW91X+PW91C
 Functional: PW91X(Automatically generated (new) PW91X)                        Gradient terms: 1
 Functional: PW91C(Automatically generated (new) PW91C)                        Gradient terms: 1
 Use grid at  1800.2

 Functional: PW91X                     Factor:  1.0000
 Functional: PW91C                     Factor:  1.0000

 Generated new metagrid on record  1800.2 with target accuracy 1.0D-06 and 45620 points in CPU time    1.1
 Computed new grid on record 1800.1 in CPU time    1.3
   28286 words reserved for DFT integration

 PROGRAM * UKS-SCF (Unrestricted Kohn-Sham)     Authors: W. Meyer, H.-J. Werner, P.J. Knowles, 1993

 NUMBER OF ELECTRONS:      17+   17-    SPACE SYMMETRY=1    SPIN SYMMETRY: Singlet 
 CONVERGENCE THRESHOLDS:    1.00E-05 (Density)    1.00E-06 (Energy)
 MAX. NUMBER OF ITERATIONS:       60
 INTERPOLATION TYPE:            DIIS
 INTERPOLATION STEPS:              2 (START)      1 (STEP)
 LEVEL SHIFTS:                 -0.20 (ALPHA)  -0.20 (BETA) 



 Use fine grid record 1800.2 for energy threshold  1.0D-06
 Orbital guess generated from atomic densities. Full valence occupancy:   17

 Molecular orbital dump at record        2200.2

 Initial alpha occupation  17
 Initial beta  occupation  17

 ITERATION    DDIFF          GRAD             ENERGY        2-EL.EN.            DIPOLE MOMENTS         DIIS
    1      0.000D+00      0.000D+00      -156.19401423    433.006537   -0.00004   -0.00000   -0.03606    0
    2      0.685D-01      0.221D-01      -156.46843700    417.146974   -0.00005   -0.00000   -0.01280    1
    3      0.138D-01      0.578D-02      -156.48692673    420.193833   -0.00005   -0.00000    0.00635    2
    4      0.679D-03      0.242D-03      -156.48698135    420.191852   -0.00006   -0.00000    0.01014    3
    5      0.201D-03      0.546D-04      -156.48698472    420.189847   -0.00006   -0.00000    0.01080    4
    6      0.402D-04      0.964D-05      -156.48698482    420.189934   -0.00006   -0.00000    0.01064    4
    7      0.125D-04      0.511D-05      -156.48698483    420.189858   -0.00006   -0.00000    0.01066    5
    8      0.143D-05      0.496D-06      -156.48698483    420.189959   -0.00006   -0.00000    0.01067    5
    9      0.223D-06      0.692D-07      -156.48698483    420.189919   -0.00006   -0.00000    0.01066    5

 Final alpha occupancy:  17
 Final beta  occupancy:  17

 !UKS STATE 1.1 Energy               -156.486984832437
 Nuclear energy                       134.07051350
 One-electron energy                 -475.27397710
 Two-electron energy                  210.09495975
 Density functional                   -25.37848098     PW91X=-24.20057150 PW91C= -1.17790948
 Virial quotient                       -1.01677341
 !UKS STATE 1.1 Dipole moment          -0.00005839    -0.00000000     0.01066470
 Dipole moment /Debye                  -0.00014839    -0.00000000     0.02710519

 Orbital energies for positive spin:

         1.1          2.1          3.1          4.1          5.1          6.1          7.1          8.1          9.1         10.1
     -9.739276    -9.716067    -9.716065    -9.715917    -0.686665    -0.577179    -0.577178    -0.466145    -0.374721    -0.344175

        11.1         12.1         13.1         14.1         15.1         16.1         17.1         18.1         19.1
     -0.344167    -0.298823    -0.298822    -0.280590    -0.242018    -0.242016    -0.237042     0.319503     0.333870

 Orbital energies for negative spin:

         1.1          2.1          3.1          4.1          5.1          6.1          7.1          8.1          9.1         10.1
     -9.739276    -9.716067    -9.716065    -9.715917    -0.686665    -0.577179    -0.577178    -0.466145    -0.374721    -0.344175

        11.1         12.1         13.1         14.1         15.1         16.1         17.1         18.1         19.1
     -0.344167    -0.298823    -0.298822    -0.280590    -0.242018    -0.242016    -0.237042     0.319503     0.333870

 HOMO     17.1    -0.237042 =      -6.4502eV
 LUMO     18.1     0.319503 =       8.6941eV
 LUMO-HOMO         0.556545 =      15.1444eV

 EXPECTATION VALUE OF S**2:             0.00000000

 Natural orbitals saved to record    2200.2 (Orbital set 3)

 Orbital spaces for UNO-CAS (Min. occupation: 0.020  Max. occupation: 1.980):

 Closed:       17
 Active:        0


 **********************************************************************************************************************************
 DATASETS  * FILE   NREC   LENGTH (MB)   RECORD NAMES
              1      20       32.15       500      610      700      900      950      970     1000      129      960     1100   
                                          VAR    BASINP    GEOM    SYMINP    ZMAT    AOBASIS   BASIS     P2S    ABASIS      S 
                                         1400     1410     1200     1210     1080     1600     1650     1300     1700     1800   
                                           T        V       H0       H01     AOSYM     SMH    MOLCAS    ERIS     OPER     GRID   

              2       5        3.02       700     1000      520     1800     2200   
                                         GEOM     BASIS   MCVARS    GRID      UKS  

 PROGRAMS   *        TOTAL       UKS       INT
 CPU TIMES  *         4.85      4.33      0.36
 REAL TIME  *         5.39 SEC
 DISK USED  *        35.98 MB      
 **********************************************************************************************************************************


 PROGRAM * Intrinsic Basis Bonding Analysis (IBBA)          Author: G. Knizia

 Molecular orbitals read from record     2200.2  Type=UKS/ALPHA (state 1.1)
 Fock matrix read from record            2200.2  Type=UKS/TOTAL (state 1.1)
 Orbital energies read from record       2200.2  Type=UKS/ALPHA (state 1.1)
 Density matrix read from record         2200.2  Type=UKS/CHARGE (state 1.1)

 Number of core orbitals:           4 (   4 )
 Number of closed-shell orbitals:  13 (  13 )

 Basis set MINAO-AUTO-PP generated.      Number of basis functions:   30 

 Polarized AO type:                A = (O Ot + (1-O)(1-Ot)) P12
 Orthogonalization method:         Symmetric (Loewdin)
 Localization functional:          L = sum[A,i] <i|n_A|i>^4 -> max

 Localization group 1:  17 orbitals, occupancy  2.000
 Iterative localization: IB/PM,    7 iter; Final gradient 0.53E-08

 Bond order analysis:       [THRPRINT= 0.020]

   CEN ATOM   CEN ATOM     WIBERG.BO      RENORM.BO
     1   C  -   3   C       1.009542       1.006342
     1   C  -   5   C       1.009542       1.006340
     1   C  -   4   C       1.009542       1.006340
     1   C  -   2   H       0.938717       0.961239

     2   H  -   1   C       0.938717       0.961239

     3   C  -   1   C       1.009542       1.006342
     3   C  -   6   H       0.965074       0.984220
     3   C  -   9   H       0.964829       0.986208
     3   C  -  10   H       0.964829       0.986208

     4   C  -   1   C       1.009542       1.006340
     4   C  -   7   H       0.965073       0.984219
     4   C  -  11   H       0.964832       0.986208
     4   C  -  12   H       0.964826       0.986208

     5   C  -   1   C       1.009542       1.006340
     5   C  -   8   H       0.965073       0.984219
     5   C  -  14   H       0.964832       0.986208
     5   C  -  13   H       0.964826       0.986208

     6   H  -   3   C       0.965074       0.984220

     7   H  -   4   C       0.965073       0.984219

     8   H  -   5   C       0.965073       0.984219

     9   H  -   3   C       0.964829       0.986208

    10   H  -   3   C       0.964829       0.986208

    11   H  -   4   C       0.964832       0.986208

    12   H  -   4   C       0.964826       0.986208

    13   H  -   5   C       0.964826       0.986208

    14   H  -   5   C       0.964832       0.986208


 Valency analysis:

   CEN ATOM   TOT.VALENCE
     1   C       3.976451
     2   H       0.983045
     3   C       3.934790
     4   C       3.934787
     5   C       3.934787
     6   H       0.983322
     7   H       0.983321
     8   H       0.983321
     9   H       0.982401
    10   H       0.982401
    11   H       0.982404
    12   H       0.982397
    13   H       0.982397
    14   H       0.982404

 Total charge composition:

   CEN ATOM         s          p       ELECTRONS ->P.CHARGE
     1   C       2.95503    3.16982      6.12485   -0.12485
     2   H       0.86979                 0.86979    0.13021
     3   C       3.00004    3.39622      6.39625   -0.39625
     4   C       3.00004    3.39622      6.39626   -0.39626
     5   C       3.00004    3.39622      6.39626   -0.39626
     6   H       0.87086                 0.87086    0.12914
     7   H       0.87085                 0.87085    0.12915
     8   H       0.87085                 0.87085    0.12915
     9   H       0.86734                 0.86734    0.13266
    10   H       0.86734                 0.86734    0.13266
    11   H       0.86735                 0.86735    0.13265
    12   H       0.86733                 0.86733    0.13267
    13   H       0.86733                 0.86733    0.13267
    14   H       0.86735                 0.86735    0.13265

 Total charge composition, AO contributions:

   CEN ATOM SHL      SPHERICAL COMPONENTS
     1   C  1s       1.99260
     1   C  2s       0.96243
     1   C  2p       1.02052    1.02052    1.12877

     2   H  1s       0.86979

     3   C  1s       1.99214
     3   C  2s       1.00790
     3   C  2p       1.06742    1.16984    1.15896

     4   C  1s       1.99214
     4   C  2s       1.00790
     4   C  2p       1.14424    1.09302    1.15896

     5   C  1s       1.99214
     5   C  2s       1.00790
     5   C  2p       1.14424    1.09302    1.15896

     6   H  1s       0.87086

     7   H  1s       0.87085

     8   H  1s       0.87085

     9   H  1s       0.86734

    10   H  1s       0.86734

    11   H  1s       0.86735

    12   H  1s       0.86733

    13   H  1s       0.86733

    14   H  1s       0.86735

 Summary of localized orbital composition:   [THRPRINT= 0.020]

   ORB  GRP  ORB.ENERGY      CENTERS/CHARGES
     1   1    -9.638202      C  1   2.000
     2   1    -9.607316      C  3   2.000
     3   1    -9.607312      C  5   2.000
     4   1    -9.607312      C  4   2.000
     5   1    -0.450737      C  3   0.994   C  1   0.990
     6   1    -0.450730      C  4   0.994   C  1   0.990
     7   1    -0.450730      C  5   0.994   C  1   0.990
     8   1    -0.405681      C  4   1.131   H 11   0.860
     9   1    -0.405681      C  5   1.131   H 14   0.860
    10   1    -0.405681      C  3   1.131   H  9   0.860
    11   1    -0.405681      C  3   1.131   H 10   0.860
    12   1    -0.405679      C  5   1.131   H 13   0.860
    13   1    -0.405679      C  4   1.131   H 12   0.860
    14   1    -0.403296      C  3   1.128   H  6   0.865
    15   1    -0.403295      C  5   1.128   H  8   0.865
    16   1    -0.403295      C  4   1.128   H  7   0.865
    17   1    -0.400567      C  1   1.120   H  2   0.857   (other: 0.024)

 Localized orbitals saved to record      2200.2  (orbital set 4)


 **********************************************************************************************************************************
 DATASETS  * FILE   NREC   LENGTH (MB)   RECORD NAMES
              1      20       32.15       500      610      700      900      950      970     1000      129      960     1100   
                                          VAR    BASINP    GEOM    SYMINP    ZMAT    AOBASIS   BASIS     P2S    ABASIS      S 
                                         1400     1410     1200     1210     1080     1600     1650     1300     1700     1800   
                                           T        V       H0       H01     AOSYM     SMH    MOLCAS    ERIS     OPER     GRID   

              2       5        3.03       700     1000      520     1800     2200   
                                         GEOM     BASIS   MCVARS    GRID      UKS  

 PROGRAMS   *        TOTAL      IBBA       UKS       INT
 CPU TIMES  *         4.87      0.02      4.33      0.36
 REAL TIME  *         5.51 SEC
 DISK USED  *        35.98 MB      
 **********************************************************************************************************************************
 Molecular orbitals read from record     2200.2  Type=UKS/LOCAL(IBO)  
 Occupation numbers read from record     2200.2  Type=UKS/LOCAL(IBO)  
 Orbital energies read from record       2200.2  Type=UKS/LOCAL(IBO)  
 Redundancy group numbers read from rec  2200.2  Type=UKS/BETA (state 1.1)

 IBBA/STO-3G energy=      0.000000000000

        UKS-SCF 
   -156.48698483
 **********************************************************************************************************************************
 Molpro calculation terminated
