
 Primary working directories    : /local
 Secondary working directories  : /local
 Wavefunction directory         : /local/
 Main file repository           : /local/

 SHA1      : b4a5b34a9e711420743f49e6833241d17c61fb3c
 NAME      : 2099.9.b4a5b34
 ARCHNAME  : linux/x86_64_openmp
 FC        : /cm/shared/languages/GCC-6.1/bin/gfortran
 BLASLIB   : -lblas
 id        : simonbennie

 Nodes     nprocs
 node47-015    1

 Using customized tuning parameters: mindgm=1; mindgv=20; mindgc=4; mindgr=1; noblas=0; minvec=7
 default implementation of scratch files=df  

 memory,500,m
 geomtyp=xyz
 nosym
 noorient
 geometry={
 C         -1.53233        0.02247        0.00000
 C         -0.00192        0.01421        0.00000
 O          0.37239        1.40356        0.00000
 H          1.34248        1.44036        0.00000
 H         -1.92991       -0.99819        0.00000
 H         -1.90797        0.54382       -0.88653
 H         -1.90797        0.54382        0.88653
 C          0.54303       -0.66466       -1.26580
 C          0.54303       -0.66466        1.26580
 H          0.17836       -0.14752       -2.15943
 H          0.17836       -0.14752        2.15943
 H          0.23752       -1.71600       -1.32280
 H          0.23752       -1.71600        1.32280
 H          1.64084       -0.63767       -1.28032
 H          1.64084       -0.63767        1.28032
 }
 basis={ default,svp }
 {uks,M08-HX,direct;wf,42,1,0}
 {ibba,bonds=1}

 Variables initialized (895), CPU time= 0.01 sec
 Commands  initialized (725), CPU time= 0.01 sec, 591 directives.
 Default parameters read. Elapsed time= 0.08 sec

 Checking input...
 Passed
1


                                         ***  PROGRAM SYSTEM MOLPRO  ***
                                       Copyright, TTI GmbH Stuttgart, 2015
                                    Version 2099.9 linked May 26 2017 16:03:21


 **********************************************************************************************************************************
 LABEL *                                                                                 
  64 bit serial version                                                                  DATE: 12-Jun-17          TIME: 20:26:23  
 **********************************************************************************************************************************

 SHA1:             b4a5b34a9e711420743f49e6833241d17c61fb3c
 **********************************************************************************************************************************
 SETTING GEOMTYP        =    XYZ

 Variable memory set to  500000000 words,  buffer space 

 ZSYMEL=NOSYM

 SETTING BASIS          =    SVP


 Recomputing integrals since basis changed


 Using spherical harmonics

 Library entry C      S def2-SVP             selected for orbital group  1
 Library entry C      P def2-SVP             selected for orbital group  1
 Library entry C      D def2-SVP             selected for orbital group  1
 Library entry O      S def2-SVP             selected for orbital group  2
 Library entry O      P def2-SVP             selected for orbital group  2
 Library entry O      D def2-SVP             selected for orbital group  2
 Library entry H      S def2-SVP             selected for orbital group  3
 Library entry H      P def2-SVP             selected for orbital group  3


 PROGRAM * SEWARD (Integral evaluation for generally contracted gaussian basis sets)     Author: Roland Lindh, 1990

 Geometry written to block  1 of record 700


 Point group  C1  



 ATOMIC COORDINATES

 NR  ATOM    CHARGE       X              Y              Z

   1  C       6.00   -2.895684032    0.042462146    0.000000000
   2  C       6.00   -0.003628274    0.026853008    0.000000000
   3  O       8.00    0.703715112    2.652343999    0.000000000
   4  H       1.00    2.536919528    2.721885921    0.000000000
   5  H       1.00   -3.647001345   -1.886305720    0.000000000
   6  H       1.00   -3.605540754    1.027670861   -1.675298901
   7  H       1.00   -3.605540754    1.027670861    1.675298901
   8  C       6.00    1.026177977   -1.256025366   -2.392015328
   9  C       6.00    1.026177977   -1.256025366    2.392015328
  10  H       1.00    0.337051552   -0.278772398   -4.080731285
  11  H       1.00    0.337051552   -0.278772398    4.080731285
  12  H       1.00    0.448847749   -3.242770030   -2.499729718
  13  H       1.00    0.448847749   -3.242770030    2.499729718
  14  H       1.00    3.100738214   -1.205021658   -2.419454152
  15  H       1.00    3.100738214   -1.205021658    2.419454152

 Bond lengths in Bohr (Angstrom)

 1-2  2.892097881  1-5  2.069933136  1-6  2.069096224  1-7  2.069096224  2-3  2.719106031
     ( 1.530432290)     ( 1.095361444)     ( 1.094918569)     ( 1.094918569)     ( 1.438888946)

  2- 8  2.903104402   2- 9  2.903104402   3- 4  1.834522965   8-10  2.069222119   8-12  2.071730422
       ( 1.536256691)       ( 1.536256691)       ( 0.970787746)       ( 1.094985190)       ( 1.096312526)

  8-14  2.075368508   9-11  2.069222119   9-13  2.071730422   9-15  2.075368508
       ( 1.098237719)       ( 1.094985190)       ( 1.096312526)       ( 1.098237719)

 Bond angles

  1-2-3  104.76902697   1-2-8  110.92255387   1-2-9  110.92255387   2-1-5  110.97328220

  2- 1- 6  110.22090701   2- 1- 7  110.22090701   2- 3- 4  107.25071562   2- 8-10  110.21836376

  2- 8-12  111.57747468   2- 8-14  110.77023896   2- 9-11  110.21836376   2- 9-13  111.57747468

  2- 9-15  110.77023896   3- 2- 8  109.53648747   3- 2- 9  109.53648747   5- 1- 6  108.61190457

  5- 1- 7  108.61190457   6- 1- 7  108.12870271   8- 2- 9  110.96453384  10- 8-12  108.52192632

 10- 8-14  108.08997829  11- 9-13  108.52192632  11- 9-15  108.08997829  12- 8-14  107.54424578

 13- 9-15  107.54424578

 NUCLEAR CHARGE:                   42
 NUMBER OF PRIMITIVE AOS:         195
 NUMBER OF SYMMETRY AOS:          190
 NUMBER OF CONTRACTIONS:          120   ( 120A   )
 NUMBER OF CORE ORBITALS:           5   (   5A   )
 NUMBER OF VALENCE ORBITALS:       30   (  30A   )


 NUCLEAR REPULSION ENERGY  198.77359127


 Eigenvalues of metric

         1 0.176E-02 0.546E-02 0.548E-02 0.123E-01 0.248E-01 0.256E-01 0.256E-01 0.275E-01


 Contracted 2-electron integrals neglected if value below      1.0D-11
 AO integral compression algorithm  1   Integral accuracy      1.0D-11

     101.974 MB (compressed) written to integral file ( 44.9%)


 NUMBER OF SORTED TWO-ELECTRON INTEGRALS:   26357430.     BUFFER LENGTH:  32768
 NUMBER OF SEGMENTS:   2  SEGMENT LENGTH:   15997996      RECORD LENGTH: 524288

 Memory used in sort:      16.56 MW

 SORT1 READ    28411733. AND WROTE    24096425. INTEGRALS IN     70 RECORDS. CPU TIME:     0.41 SEC, REAL TIME:     0.72 SEC
 SORT2 READ    24096425. AND WROTE    26357430. INTEGRALS IN    389 RECORDS. CPU TIME:     0.66 SEC, REAL TIME:     0.80 SEC

 FILE SIZES:   FILE 1:   132.7 MBYTE,  FILE 4:   293.6 MBYTE,   TOTAL:    426.4 MBYTE

 OPERATOR DM      FOR CENTER  0  COORDINATES:    0.000000    0.000000    0.000000


 **********************************************************************************************************************************
 DATASETS  * FILE   NREC   LENGTH (MB)   RECORD NAMES
              1      19      120.44       500      610      700      900      950      970     1000      129      960     1100   
                                          VAR    BASINP    GEOM    SYMINP    ZMAT    AOBASIS   BASIS     P2S    ABASIS      S 
                                         1400     1410     1200     1210     1080     1600     1650     1300     1700   
                                           T        V       H0       H01     AOSYM     SMH    MOLCAS    ERIS     OPER   

 PROGRAMS   *        TOTAL       INT
 CPU TIMES  *         4.30      4.14
 REAL TIME  *        44.35 SEC
 DISK USED  *       426.89 MB      
 **********************************************************************************************************************************

 Density functional group M08-HX=XC-M08-HX
 Functional: XC-M08-HX(via MFM 1.6)                                            Gradient terms: 1
 Use grid at  1800.2


 Exact exchange will be calculated, factor:  0.5223

 Functional: XC-M08-HX                 Factor:  1.0000

 Generated new metagrid on record  1800.2 with target accuracy 1.0D-06 and 53396 points in CPU time    1.7
 Computed new grid on record 1800.1 in CPU time    1.9
   99539 words reserved for DFT integration

 PROGRAM * UKS-SCF (Unrestricted Kohn-Sham)     Authors: W. Meyer, H.-J. Werner, P.J. Knowles, 1993

 NUMBER OF ELECTRONS:      21+   21-    SPACE SYMMETRY=1    SPIN SYMMETRY: Singlet 
 CONVERGENCE THRESHOLDS:    1.00E-05 (Density)    1.00E-06 (Energy)
 MAX. NUMBER OF ITERATIONS:       60
 INTERPOLATION TYPE:            DIIS
 INTERPOLATION STEPS:              2 (START)      1 (STEP)
 LEVEL SHIFTS:                 -0.20 (ALPHA)  -0.20 (BETA) 



 Use fine grid record 1800.2 for energy threshold  1.0D-06
 Orbital guess generated from atomic densities. Full valence occupancy:   21

 Molecular orbital dump at record        2200.2

 Initial alpha occupation  21
 Initial beta  occupation  21

 ITERATION    DDIFF          GRAD             ENERGY        2-EL.EN.            DIPOLE MOMENTS         DIIS
    1      0.000D+00      0.000D+00      -233.31883193    596.118341    0.71660   -0.80757    0.00000    0
    2      0.739D-02      0.380D-02      -233.41620711    585.451533    0.35995   -0.47869    0.00000    1
    3      0.200D-02      0.140D-02      -233.42661413    587.530115    0.39580   -0.53309    0.00000    2
    4      0.855D-03      0.315D-03      -233.42780619    587.380527    0.37794   -0.49289    0.00000    3
    5      0.622D-03      0.147D-03      -233.42814558    587.314344    0.36897   -0.49033    0.00000    4
    6      0.239D-03      0.314D-04      -233.42816736    587.303774    0.36701   -0.48810    0.00000    5
    7      0.457D-04      0.614D-05      -233.42816816    587.295968    0.36654   -0.48814    0.00000    6
    8      0.831D-05      0.236D-05      -233.42816823    587.299354    0.36655   -0.48821    0.00000    6
    9      0.444D-05      0.769D-06      -233.42816825    587.299258    0.36650   -0.48816    0.00000    6

 Final alpha occupancy:  21
 Final beta  occupancy:  21

 !UKS STATE 1.1 Energy               -233.428168246965
 Nuclear energy                       198.77359127
 One-electron energy                 -708.89490233
 Two-electron energy                  293.64962884
 Density functional                   -16.95648603     XC-M08-HX=-16.95648603
 Virial quotient                       -1.01223684
 !UKS STATE 1.1 Dipole moment           0.36649862    -0.48815550     0.00000000
 Dipole moment /Debye                   0.93148557    -1.24068626     0.00000000

 Orbital energies for positive spin:

         1.1          2.1          3.1          4.1          5.1          6.1          7.1          8.1          9.1         10.1
    -19.609152   -10.598566   -10.534181   -10.534158   -10.528777    -1.112113    -0.880261    -0.777691    -0.776728    -0.643789

        11.1         12.1         13.1         14.1         15.1         16.1         17.1         18.1         19.1         20.1
     -0.560783    -0.522098    -0.520411    -0.478250    -0.463124    -0.442214    -0.429726    -0.418755    -0.412611    -0.381256

        21.1         22.1         23.1
     -0.338128     0.054690     0.105619

 Orbital energies for negative spin:

         1.1          2.1          3.1          4.1          5.1          6.1          7.1          8.1          9.1         10.1
    -19.609152   -10.598566   -10.534181   -10.534158   -10.528777    -1.112113    -0.880261    -0.777691    -0.776728    -0.643789

        11.1         12.1         13.1         14.1         15.1         16.1         17.1         18.1         19.1         20.1
     -0.560783    -0.522098    -0.520411    -0.478250    -0.463124    -0.442214    -0.429726    -0.418755    -0.412611    -0.381256

        21.1         22.1         23.1
     -0.338128     0.054690     0.105619

 HOMO     21.1    -0.338128 =      -9.2009eV
 LUMO     22.1     0.054690 =       1.4882eV
 LUMO-HOMO         0.392817 =      10.6891eV

 EXPECTATION VALUE OF S**2:             0.00000000

 Natural orbitals saved to record    2200.2 (Orbital set 3)

 Orbital spaces for UNO-CAS (Min. occupation: 0.020  Max. occupation: 1.980):

 Closed:       21
 Active:        0


 **********************************************************************************************************************************
 DATASETS  * FILE   NREC   LENGTH (MB)   RECORD NAMES
              1      20      122.15       500      610      700      900      950      970     1000      129      960     1100   
                                          VAR    BASINP    GEOM    SYMINP    ZMAT    AOBASIS   BASIS     P2S    ABASIS      S 
                                         1400     1410     1200     1210     1080     1600     1650     1300     1700     1800   
                                           T        V       H0       H01     AOSYM     SMH    MOLCAS    ERIS     OPER     GRID   

              2       5        3.59       700     1000      520     1800     2200   
                                         GEOM     BASIS   MCVARS    GRID      UKS  

 PROGRAMS   *        TOTAL       UKS       INT
 CPU TIMES  *        61.56     57.27      4.14
 REAL TIME  *       102.33 SEC
 DISK USED  *       426.89 MB      
 **********************************************************************************************************************************


 PROGRAM * Intrinsic Basis Bonding Analysis (IBBA)          Author: G. Knizia

 Molecular orbitals read from record     2200.2  Type=UKS/ALPHA (state 1.1)
 Fock matrix read from record            2200.2  Type=UKS/TOTAL (state 1.1)
 Orbital energies read from record       2200.2  Type=UKS/ALPHA (state 1.1)
 Density matrix read from record         2200.2  Type=UKS/CHARGE (state 1.1)

 Number of core orbitals:           5 (   5 )
 Number of closed-shell orbitals:  16 (  16 )

 Basis set MINAO-AUTO-PP generated.      Number of basis functions:   35 

 Polarized AO type:                A = (O Ot + (1-O)(1-Ot)) P12
 Orthogonalization method:         Symmetric (Loewdin)
 Localization functional:          L = sum[A,i] <i|n_A|i>^4 -> max

 Localization group 1:  21 orbitals, occupancy  2.000
 Iterative localization: IB/PM,    7 iter; Final gradient 0.19E-08

 Bond order analysis:       [THRPRINT= 0.020]

   CEN ATOM   CEN ATOM     WIBERG.BO      RENORM.BO
     1   C  -   2   C       0.994500       0.992343
     1   C  -   5   H       0.965983       0.987910
     1   C  -   6   H       0.960898       0.983369
     1   C  -   7   H       0.960898       0.983369

     2   C  -   1   C       0.994500       0.992343
     2   C  -   9   C       0.993528       0.975908
     2   C  -   8   C       0.993528       0.975908
     2   C  -   3   O       0.942720       0.956929

     3   O  -   2   C       0.942720       0.956929
     3   O  -   4   H       0.874167       0.979015
     3   O  -   9   C       0.025310       0.012982
     3   O  -   8   C       0.025310       0.012982

     4   H  -   3   O       0.874167       0.979015

     5   H  -   1   C       0.965983       0.987910

     6   H  -   1   C       0.960898       0.983369

     7   H  -   1   C       0.960898       0.983369

     8   C  -   2   C       0.993528       0.975908
     8   C  -  14   H       0.965385       0.983872
     8   C  -  12   H       0.962374       0.984314
     8   C  -  10   H       0.961385       0.983227
     8   C  -   3   O       0.025310       0.012982

     9   C  -   2   C       0.993528       0.975908
     9   C  -  15   H       0.965385       0.983872
     9   C  -  13   H       0.962374       0.984314
     9   C  -  11   H       0.961385       0.983227
     9   C  -   3   O       0.025310       0.012982

    10   H  -   8   C       0.961385       0.983227

    11   H  -   9   C       0.961385       0.983227

    12   H  -   8   C       0.962374       0.984314

    13   H  -   9   C       0.962374       0.984314

    14   H  -   8   C       0.965385       0.983872

    15   H  -   9   C       0.965385       0.983872


 Valency analysis:

   CEN ATOM   TOT.VALENCE
     1   C       3.938259
     2   C       3.935354
     3   O       1.927785
     4   H       0.891568
     5   H       0.983743
     6   H       0.980779
     7   H       0.980779
     8   C       3.940871
     9   C       3.940871
    10   H       0.980817
    11   H       0.980817
    12   H       0.982581
    13   H       0.982581
    14   H       0.985195
    15   H       0.985195

 Total charge composition:

   CEN ATOM         s          p       ELECTRONS ->P.CHARGE
     1   C       3.02056    3.37866      6.39922   -0.39922
     2   C       2.91882    2.82583      5.74465    0.25535
     3   O       3.62033    4.92619      8.54653   -0.54653
     4   H       0.67071                 0.67071    0.32929
     5   H       0.87250                 0.87250    0.12750
     6   H       0.86136                 0.86136    0.13864
     7   H       0.86136                 0.86136    0.13864
     8   C       3.02613    3.38786      6.41400   -0.41400
     9   C       3.02613    3.38786      6.41400   -0.41400
    10   H       0.86150                 0.86150    0.13850
    11   H       0.86150                 0.86150    0.13850
    12   H       0.86802                 0.86802    0.13198
    13   H       0.86802                 0.86802    0.13198
    14   H       0.87833                 0.87833    0.12167
    15   H       0.87833                 0.87833    0.12167

 Total charge composition, AO contributions:

   CEN ATOM SHL      SPHERICAL COMPONENTS
     1   C  1s       1.99076
     1   C  2s       1.02981
     1   C  2p       1.04708    1.15912    1.17245

     2   C  1s       1.99243
     2   C  2s       0.92639
     2   C  2p       1.01427    0.80020    1.01135

     3   O  1s       1.99705
     3   O  2s       1.62328
     3   O  2p       1.47318    1.49260    1.96041

     4   H  1s       0.67071

     5   H  1s       0.87250

     6   H  1s       0.86136

     7   H  1s       0.86136

     8   C  1s       1.99086
     8   C  2s       1.03527
     8   C  2p       1.14213    1.14436    1.10138

     9   C  1s       1.99086
     9   C  2s       1.03527
     9   C  2p       1.14213    1.14436    1.10138

    10   H  1s       0.86150

    11   H  1s       0.86150

    12   H  1s       0.86802

    13   H  1s       0.86802

    14   H  1s       0.87833

    15   H  1s       0.87833

 Summary of localized orbital composition:   [THRPRINT= 0.020]

   ORB  GRP  ORB.ENERGY      CENTERS/CHARGES
     1   1   -19.451407      O  3   2.000
     2   1   -10.504271      C  2   2.000
     3   1   -10.416349      C  9   2.000
     4   1   -10.416349      C  8   2.000
     5   1   -10.410082      C  1   2.000
     6   1    -0.845332      O  3   1.331   H  4   0.661
     7   1    -0.808710      O  3   1.269   C  2   0.715
     8   1    -0.653211      C  9   1.012   C  2   0.974
     9   1    -0.653211      C  8   1.012   C  2   0.974
    10   1    -0.653134      C  1   0.991   C  2   0.987   (other: 0.023)
    11   1    -0.633468      O  3   1.983
    12   1    -0.575367      C  8   1.128   H 12   0.859
    13   1    -0.575367      C  9   1.128   H 13   0.859
    14   1    -0.574077      C  8   1.118   H 14   0.872
    15   1    -0.574077      C  9   1.118   H 15   0.872
    16   1    -0.571156      C  1   1.122   H  5   0.866
    17   1    -0.569809      C  8   1.136   H 10   0.854
    18   1    -0.569809      C  9   1.136   H 11   0.854
    19   1    -0.564570      C  1   1.136   H  6   0.854
    20   1    -0.564570      C  1   1.136   H  7   0.854
    21   1    -0.378334      O  3   1.960   (other: 0.040)

 Localized orbitals saved to record      2200.2  (orbital set 4)


 **********************************************************************************************************************************
 DATASETS  * FILE   NREC   LENGTH (MB)   RECORD NAMES
              1      20      122.15       500      610      700      900      950      970     1000      129      960     1100   
                                          VAR    BASINP    GEOM    SYMINP    ZMAT    AOBASIS   BASIS     P2S    ABASIS      S 
                                         1400     1410     1200     1210     1080     1600     1650     1300     1700     1800   
                                           T        V       H0       H01     AOSYM     SMH    MOLCAS    ERIS     OPER     GRID   

              2       5        3.71       700     1000      520     1800     2200   
                                         GEOM     BASIS   MCVARS    GRID      UKS  

 PROGRAMS   *        TOTAL      IBBA       UKS       INT
 CPU TIMES  *        61.61      0.05     57.27      4.14
 REAL TIME  *       102.47 SEC
 DISK USED  *       426.89 MB      
 **********************************************************************************************************************************
 Molecular orbitals read from record     2200.2  Type=UKS/LOCAL(IBO)  
 Occupation numbers read from record     2200.2  Type=UKS/LOCAL(IBO)  
 Orbital energies read from record       2200.2  Type=UKS/LOCAL(IBO)  
 Redundancy group numbers read from rec  2200.2  Type=UKS/BETA (state 1.1)

 IBBA/SVP energy=      0.000000000000

        UKS-SCF 
   -233.42816825
 **********************************************************************************************************************************
 Molpro calculation terminated
