
 Primary working directories    : /local
 Secondary working directories  : /local
 Wavefunction directory         : /local/
 Main file repository           : /local/

 SHA1      : b4a5b34a9e711420743f49e6833241d17c61fb3c
 NAME      : 2099.9.b4a5b34
 ARCHNAME  : linux/x86_64_openmp
 FC        : /cm/shared/languages/GCC-6.1/bin/gfortran
 BLASLIB   : -lblas
 id        : simonbennie

 Nodes     nprocs
 node33-007    1

 Using customized tuning parameters: mindgm=1; mindgv=20; mindgc=4; mindgr=1; noblas=0; minvec=7
 default implementation of scratch files=df  

 memory,500,m
 geomtyp=xyz
 nosym
 noorient
 geometry={
 C         -1.53233        0.02247        0.00000
 C         -0.00192        0.01421        0.00000
 O          0.37239        1.40356        0.00000
 H          1.34248        1.44036        0.00000
 H         -1.92991       -0.99819        0.00000
 H         -1.90797        0.54382       -0.88653
 H         -1.90797        0.54382        0.88653
 C          0.54303       -0.66466       -1.26580
 C          0.54303       -0.66466        1.26580
 H          0.17836       -0.14752       -2.15943
 H          0.17836       -0.14752        2.15943
 H          0.23752       -1.71600       -1.32280
 H          0.23752       -1.71600        1.32280
 H          1.64084       -0.63767       -1.28032
 H          1.64084       -0.63767        1.28032
 }
 basis={ default,qzvp }
 {ks,M06,direct;wf,42,1,0}
 {ibba,bonds=1}

 Variables initialized (895), CPU time= 0.00 sec
 Commands  initialized (725), CPU time= 0.02 sec, 591 directives.
 Default parameters read. Elapsed time= 0.17 sec

 Checking input...
 Passed
1


                                         ***  PROGRAM SYSTEM MOLPRO  ***
                                       Copyright, TTI GmbH Stuttgart, 2015
                                    Version 2099.9 linked May 26 2017 16:03:21


 **********************************************************************************************************************************
 LABEL *                                                                                 
  64 bit serial version                                                                  DATE: 12-Jun-17          TIME: 16:41:50  
 **********************************************************************************************************************************

 SHA1:             b4a5b34a9e711420743f49e6833241d17c61fb3c
 **********************************************************************************************************************************
 SETTING GEOMTYP        =    XYZ

 Variable memory set to  500000000 words,  buffer space 

 ZSYMEL=NOSYM

 SETTING BASIS          =    QZVP


 Recomputing integrals since basis changed


 Using spherical harmonics

 Library entry C      S def2-QZVP            selected for orbital group  1
 Library entry C      P def2-QZVP            selected for orbital group  1
 Library entry C      D def2-QZVP            selected for orbital group  1
 Library entry C      F def2-QZVP            selected for orbital group  1
 Library entry C      G def2-QZVP            selected for orbital group  1
 Library entry O      S def2-QZVP            selected for orbital group  2
 Library entry O      P def2-QZVP            selected for orbital group  2
 Library entry O      D def2-QZVP            selected for orbital group  2
 Library entry O      F def2-QZVP            selected for orbital group  2
 Library entry O      G def2-QZVP            selected for orbital group  2
 Library entry H      S def2-QZVP            selected for orbital group  3
 Library entry H      P def2-QZVP            selected for orbital group  3
 Library entry H      D def2-QZVP            selected for orbital group  3
 Library entry H      F def2-QZVP            selected for orbital group  3


 PROGRAM * SEWARD (Integral evaluation for generally contracted gaussian basis sets)     Author: Roland Lindh, 1990

 Geometry written to block  1 of record 700


 Point group  C1  



 ATOMIC COORDINATES

 NR  ATOM    CHARGE       X              Y              Z

   1  C       6.00   -2.895684032    0.042462146    0.000000000
   2  C       6.00   -0.003628274    0.026853008    0.000000000
   3  O       8.00    0.703715112    2.652343999    0.000000000
   4  H       1.00    2.536919528    2.721885921    0.000000000
   5  H       1.00   -3.647001345   -1.886305720    0.000000000
   6  H       1.00   -3.605540754    1.027670861   -1.675298901
   7  H       1.00   -3.605540754    1.027670861    1.675298901
   8  C       6.00    1.026177977   -1.256025366   -2.392015328
   9  C       6.00    1.026177977   -1.256025366    2.392015328
  10  H       1.00    0.337051552   -0.278772398   -4.080731285
  11  H       1.00    0.337051552   -0.278772398    4.080731285
  12  H       1.00    0.448847749   -3.242770030   -2.499729718
  13  H       1.00    0.448847749   -3.242770030    2.499729718
  14  H       1.00    3.100738214   -1.205021658   -2.419454152
  15  H       1.00    3.100738214   -1.205021658    2.419454152

 Bond lengths in Bohr (Angstrom)

 1-2  2.892097881  1-5  2.069933136  1-6  2.069096224  1-7  2.069096224  2-3  2.719106031
     ( 1.530432290)     ( 1.095361444)     ( 1.094918569)     ( 1.094918569)     ( 1.438888946)

  2- 8  2.903104402   2- 9  2.903104402   3- 4  1.834522965   8-10  2.069222119   8-12  2.071730422
       ( 1.536256691)       ( 1.536256691)       ( 0.970787746)       ( 1.094985190)       ( 1.096312526)

  8-14  2.075368508   9-11  2.069222119   9-13  2.071730422   9-15  2.075368508
       ( 1.098237719)       ( 1.094985190)       ( 1.096312526)       ( 1.098237719)

 Bond angles

  1-2-3  104.76902697   1-2-8  110.92255387   1-2-9  110.92255387   2-1-5  110.97328220

  2- 1- 6  110.22090701   2- 1- 7  110.22090701   2- 3- 4  107.25071562   2- 8-10  110.21836376

  2- 8-12  111.57747468   2- 8-14  110.77023896   2- 9-11  110.21836376   2- 9-13  111.57747468

  2- 9-15  110.77023896   3- 2- 8  109.53648747   3- 2- 9  109.53648747   5- 1- 6  108.61190457

  5- 1- 7  108.61190457   6- 1- 7  108.12870271   8- 2- 9  110.96453384  10- 8-12  108.52192632

 10- 8-14  108.08997829  11- 9-13  108.52192632  11- 9-15  108.08997829  12- 8-14  107.54424578

 13- 9-15  107.54424578

 NUCLEAR CHARGE:                   42
 NUMBER OF PRIMITIVE AOS:         840
 NUMBER OF SYMMETRY AOS:          715
 NUMBER OF CONTRACTIONS:          585   ( 585A   )
 NUMBER OF CORE ORBITALS:           5   (   5A   )
 NUMBER OF VALENCE ORBITALS:       30   (  30A   )


 NUCLEAR REPULSION ENERGY  198.77359127


 Eigenvalues of metric

         1 0.447E-04 0.459E-04 0.470E-04 0.743E-04 0.823E-04 0.917E-04 0.943E-04 0.107E-03


 Contracted 2-electron integrals neglected if value below      1.0D-12
 AO integral compression algorithm  1   Integral accuracy      1.0D-12

     40752.906 MB (compressed) written to integral file ( 33.4%)


 NUMBER OF SORTED TWO-ELECTRON INTEGRALS:14689922715.     BUFFER LENGTH:  32768
 NUMBER OF SEGMENTS: 184  SEGMENT LENGTH:   79999773      RECORD LENGTH: 262144

 Memory used in sort:      80.29 MW

 SORT1 READ 15248138275. AND WROTE 10587813328. INTEGRALS IN  60679 RECORDS. CPU TIME:   191.73 SEC, REAL TIME:  9437.98 SEC
 SORT2 READ 10587813328. AND WROTE 14689922715. INTEGRALS IN 155460 RECORDS. CPU TIME:   317.80 SEC, REAL TIME: 10195.38 SEC

 FILE SIZES:   FILE 1: 40795.6 MBYTE,  FILE 4:127253.1 MBYTE,   TOTAL: 168048.8 MBYTE

 OPERATOR DM      FOR CENTER  0  COORDINATES:    0.000000    0.000000    0.000000


 **********************************************************************************************************************************
 DATASETS  * FILE   NREC   LENGTH (MB)   RECORD NAMES
              1      19    37754.71       500      610      700      900      950      970     1000      129      960     1100   
                                          VAR    BASINP    GEOM    SYMINP    ZMAT    AOBASIS   BASIS     P2S    ABASIS      S 
                                         1400     1410     1200     1210     1080     1600     1650     1300     1700   
                                           T        V       H0       H01     AOSYM     SMH    MOLCAS    ERIS     OPER   

 PROGRAMS   *        TOTAL       INT
 CPU TIMES  *      1179.72   1179.57
 REAL TIME  *     21004.31 SEC
 DISK USED  *       168.05 GB      
 **********************************************************************************************************************************

 Density functional group M06=XC-M06
 Functional: XC-M06(via MFM 1.6)                                               Gradient terms: 1
 Use grid at  1800.2


 Exact exchange will be calculated, factor:  0.2700

 Functional: XC-M06                    Factor:  1.0000

 Generated new metagrid on record  1800.2 with target accuracy 1.0D-06 and 58228 points in CPU time    1.7
 Computed new grid on record 1800.1 in CPU time    1.9
  469144 words reserved for DFT integration

 PROGRAM * RKS-SCF (Restricted closed shell Kohn-Sham)     Authors: W. Meyer, H.-J. Werner, P.J. Knowles, 1993

 NUMBER OF ELECTRONS:      21+   21-    SPACE SYMMETRY=1    SPIN SYMMETRY: Singlet 
 CONVERGENCE THRESHOLDS:    1.00E-05 (Density)    1.00E-06 (Energy)
 MAX. NUMBER OF ITERATIONS:       60
 INTERPOLATION TYPE:            DIIS
 INTERPOLATION STEPS:              2 (START)      1 (STEP)
 LEVEL SHIFTS:                  0.00 (CLOSED)  0.00 (OPEN) 



 Use fine grid record 1800.2 for energy threshold  1.0D-06
 Orbital guess generated from atomic densities. Full valence occupancy:   21

 Molecular orbital dump at record        2100.2

 Initial occupancy:  21

 ITERATION    DDIFF          GRAD             ENERGY        2-EL.EN.            DIPOLE MOMENTS         DIIS   ORB.
    1      0.000D+00      0.000D+00      -233.41124474    619.134617    0.69714   -0.85701    0.00000    0    start
    2      0.000D+00      0.430D-02      -233.27703652    585.018529   -0.22404   -0.01572    0.00000    1    diag
    3      0.109D-01      0.591D-02      -233.62200809    604.773202    0.35610   -0.61607    0.00000    2    diag
    4      0.910D-02      0.676D-03      -233.62511628    604.330603    0.33218   -0.47955    0.00000    3    diag
    5      0.632D-03      0.289D-03      -233.62568185    604.552854    0.34340   -0.55380    0.00000    4    diag
    6      0.450D-03      0.103D-03      -233.62573534    604.601656    0.34175   -0.52786    0.00000    5    diag
    7      0.894D-04      0.553D-04      -233.62576023    604.533822    0.34180   -0.53174    0.00000    6    diag
    8      0.225D-04      0.115D-04      -233.62576151    604.561102    0.34195   -0.53276    0.00000    7    diag
    9      0.139D-04      0.158D-05      -233.62576153    604.559265    0.34198   -0.53246    0.00000    8    diag
   10      0.231D-05      0.507D-06      -233.62576153    604.560085    0.34198   -0.53272    0.00000    0    orth

 Final occupancy:  21

 !RKS STATE 1.1 Energy               -233.625761530697
 Nuclear energy                       198.77359127
 One-electron energy                 -709.55899502
 Two-electron energy                  302.28004239
 SCF exchange energy                  -32.47608654     Factor= 0.2700
 Density functional                   -25.12040018     XC-M06=-25.12040018
 Virial quotient                       -1.00582469
 !RKS STATE 1.1 Dipole moment           0.34198219    -0.53272215     0.00000000
 Dipole moment /Debye                   0.86917509    -1.35395597     0.00000000

 Orbital energies:

         1.1          2.1          3.1          4.1          5.1          6.1          7.1          8.1          9.1         10.1
    -19.208634   -10.302571   -10.232244   -10.232240   -10.226708    -1.040460    -0.799640    -0.703027    -0.701900    -0.579976

        11.1         12.1         13.1         14.1         15.1         16.1         17.1         18.1         19.1         20.1
     -0.501722    -0.464163    -0.461152    -0.424929    -0.410074    -0.392659    -0.378838    -0.369571    -0.361803    -0.334394

        21.1         22.1         23.1
     -0.288802    -0.003474     0.024159

 HOMO     21.1    -0.288802 =      -7.8587eV
 LUMO     22.1    -0.003474 =      -0.0945eV
 LUMO-HOMO         0.285328 =       7.7642eV


 **********************************************************************************************************************************
 DATASETS  * FILE   NREC   LENGTH (MB)   RECORD NAMES
              1      20    37756.57       500      610      700      900      950      970     1000      129      960     1100   
                                          VAR    BASINP    GEOM    SYMINP    ZMAT    AOBASIS   BASIS     P2S    ABASIS      S 
                                         1400     1410     1200     1210     1080     1600     1650     1300     1700     1800   
                                           T        V       H0       H01     AOSYM     SMH    MOLCAS    ERIS     OPER     GRID   

              2       5        9.95       700     1000      520     1800     2100   
                                         GEOM     BASIS   MCVARS    GRID      RKS  

 PROGRAMS   *        TOTAL        KS       INT
 CPU TIMES  *      4344.34   3164.62   1179.57
 REAL TIME  *     29700.64 SEC
 DISK USED  *       168.05 GB      
 **********************************************************************************************************************************


 PROGRAM * Intrinsic Basis Bonding Analysis (IBBA)          Author: G. Knizia

 Molecular orbitals read from record     2100.2  Type=RKS/CANONICAL (state 1.1)
 Fock matrix read from record            2100.2  Type=RKS/TOTAL (state 1.1)
 Orbital energies read from record       2100.2  Type=RKS/CANONICAL (state 1.1)
 Density matrix read from record         2100.2  Type=RKS/CHARGE (state 1.1)

 Number of core orbitals:           5 (   5 )
 Number of closed-shell orbitals:  16 (  16 )

 Basis set MINAO-AUTO-PP generated.      Number of basis functions:   35 

 Polarized AO type:                A = (O Ot + (1-O)(1-Ot)) P12
 Orthogonalization method:         Symmetric (Loewdin)
 Localization functional:          L = sum[A,i] <i|n_A|i>^4 -> max

 Localization group 1:  21 orbitals, occupancy  2.000
 Iterative localization: IB/PM,    7 iter; Final gradient 0.23E-08

 Bond order analysis:       [THRPRINT= 0.020]

   CEN ATOM   CEN ATOM     WIBERG.BO      RENORM.BO
     1   C  -   2   C       0.995832       0.993363
     1   C  -   5   H       0.964084       0.987918
     1   C  -   6   H       0.959440       0.982634
     1   C  -   7   H       0.959440       0.982634

     2   C  -   1   C       0.995832       0.993363
     2   C  -   9   C       0.994721       0.976430
     2   C  -   8   C       0.994721       0.976430
     2   C  -   3   O       0.927515       0.951349

     3   O  -   2   C       0.927515       0.951349
     3   O  -   4   H       0.856972       0.977577
     3   O  -   9   C       0.026735       0.013657
     3   O  -   8   C       0.026735       0.013657

     4   H  -   3   O       0.856972       0.977577

     5   H  -   1   C       0.964084       0.987918

     6   H  -   1   C       0.959440       0.982634

     7   H  -   1   C       0.959440       0.982634

     8   C  -   2   C       0.994721       0.976430
     8   C  -  14   H       0.963490       0.983294
     8   C  -  12   H       0.959828       0.982570
     8   C  -  10   H       0.959703       0.982394
     8   C  -   3   O       0.026735       0.013657

     9   C  -   2   C       0.994721       0.976430
     9   C  -  15   H       0.963490       0.983294
     9   C  -  13   H       0.959828       0.982570
     9   C  -  11   H       0.959703       0.982394
     9   C  -   3   O       0.026735       0.013657

    10   H  -   8   C       0.959703       0.982394

    11   H  -   9   C       0.959703       0.982394

    12   H  -   8   C       0.959828       0.982570

    13   H  -   9   C       0.959828       0.982570

    14   H  -   8   C       0.963490       0.983294

    15   H  -   9   C       0.963490       0.983294


 Valency analysis:

   CEN ATOM   TOT.VALENCE
     1   C       3.936097
     2   C       3.923489
     3   O       1.901237
     4   H       0.875583
     5   H       0.981896
     6   H       0.979289
     7   H       0.979289
     8   C       3.938402
     9   C       3.938402
    10   H       0.979224
    11   H       0.979224
    12   H       0.981016
    13   H       0.981016
    14   H       0.983265
    15   H       0.983265

 Total charge composition:

   CEN ATOM         s          p       ELECTRONS ->P.CHARGE
     1   C       3.03830    3.37822      6.41652   -0.41652
     2   C       2.93048    2.79516      5.72564    0.27436
     3   O       3.65334    4.94136      8.59470   -0.59470
     4   H       0.64727                 0.64727    0.35273
     5   H       0.86545                 0.86545    0.13455
     6   H       0.85609                 0.85609    0.14391
     7   H       0.85609                 0.85609    0.14391
     8   C       3.04462    3.38579      6.43041   -0.43041
     9   C       3.04462    3.38579      6.43041   -0.43041
    10   H       0.85586                 0.85586    0.14414
    11   H       0.85586                 0.85586    0.14414
    12   H       0.86222                 0.86222    0.13778
    13   H       0.86222                 0.86222    0.13778
    14   H       0.87064                 0.87064    0.12936
    15   H       0.87064                 0.87064    0.12936

 Total charge composition, AO contributions:

   CEN ATOM SHL      SPHERICAL COMPONENTS
     1   C  1s       1.99140
     1   C  2s       1.04689
     1   C  2p       1.04283    1.16199    1.17341

     2   C  1s       1.99301
     2   C  2s       0.93747
     2   C  2p       1.00737    0.77797    1.00982

     3   O  1s       1.99718
     3   O  2s       1.65616
     3   O  2p       1.48152    1.50210    1.95774

     4   H  1s       0.64727

     5   H  1s       0.86545

     6   H  1s       0.85609

     7   H  1s       0.85609

     8   C  1s       1.99150
     8   C  2s       1.05312
     8   C  2p       1.14461    1.14439    1.09679

     9   C  1s       1.99150
     9   C  2s       1.05312
     9   C  2p       1.14461    1.14439    1.09679

    10   H  1s       0.85586

    11   H  1s       0.85586

    12   H  1s       0.86222

    13   H  1s       0.86222

    14   H  1s       0.87064

    15   H  1s       0.87064

 Summary of localized orbital composition:   [THRPRINT= 0.020]

   ORB  GRP  ORB.ENERGY      CENTERS/CHARGES
     1   1   -19.044624      O  3   2.000
     2   1   -10.210696      C  2   2.000
     3   1   -10.116973      C  9   2.000
     4   1   -10.116973      C  8   2.000
     5   1   -10.110645      C  1   2.000
     6   1    -0.777989      O  3   1.354   H  4   0.636
     7   1    -0.736065      O  3   1.297   C  2   0.686
     8   1    -0.601981      O  3   1.983
     9   1    -0.586697      C  8   1.009   C  2   0.976
    10   1    -0.586697      C  9   1.009   C  2   0.976
    11   1    -0.586520      C  1   0.992   C  2   0.985   (other: 0.023)
    12   1    -0.517777      C  9   1.133   H 13   0.853
    13   1    -0.517777      C  8   1.133   H 12   0.853
    14   1    -0.515995      C  9   1.125   H 15   0.864
    15   1    -0.515995      C  8   1.125   H 14   0.864
    16   1    -0.513879      C  1   1.128   H  5   0.859
    17   1    -0.511452      C  9   1.142   H 11   0.848
    18   1    -0.511452      C  8   1.142   H 10   0.848
    19   1    -0.506260      C  1   1.141   H  7   0.848
    20   1    -0.506260      C  1   1.141   H  6   0.848
    21   1    -0.322799      O  3   1.958   (other: 0.042)

 Localized orbitals saved to record      2100.2  (orbital set 2)


 **********************************************************************************************************************************
 DATASETS  * FILE   NREC   LENGTH (MB)   RECORD NAMES
              1      20    37756.57       500      610      700      900      950      970     1000      129      960     1100   
                                          VAR    BASINP    GEOM    SYMINP    ZMAT    AOBASIS   BASIS     P2S    ABASIS      S 
                                         1400     1410     1200     1210     1080     1600     1650     1300     1700     1800   
                                           T        V       H0       H01     AOSYM     SMH    MOLCAS    ERIS     OPER     GRID   

              2       5       12.70       700     1000      520     1800     2100   
                                         GEOM     BASIS   MCVARS    GRID      RKS  

 PROGRAMS   *        TOTAL      IBBA        KS       INT
 CPU TIMES  *      4344.80      0.46   3164.62   1179.57
 REAL TIME  *     29701.34 SEC
 DISK USED  *       168.05 GB      
 **********************************************************************************************************************************
 Molecular orbitals read from record     2100.2  Type=RKS/LOCAL(IBO)  
 Occupation numbers read from record     2100.2  Type=RKS/LOCAL(IBO)  
 Orbital energies read from record       2100.2  Type=RKS/LOCAL(IBO)  
 Redundancy group numbers read from rec  2100.2  Type=RKS/LOCAL(IBO)  

 IBBA/QZVP energy=      0.000000000000

        KS-SCF  
   -233.62576153
 **********************************************************************************************************************************
 Molpro calculation terminated
