
 Primary working directories    : /tmp/sb13343
 Secondary working directories  : /tmp/sb13343
 Wavefunction directory         : /panfs/panasas01/chem/sb13343/wfu/
 Main file repository           : /tmp/sb13343/

 SHA1      : b4a5b34a9e711420743f49e6833241d17c61fb3c
 NAME      : 2099.9.b4a5b34
 ARCHNAME  : linux/x86_64_openmp
 FC        : /cm/shared/languages/GCC-6.1/bin/gfortran
 BLASLIB   : -lblas
 id        : simonbennie

 Nodes     nprocs
 node32-030    1

 Using customized tuning parameters: mindgm=1; mindgv=20; mindgc=4; mindgr=1; noblas=0; minvec=7
 default implementation of scratch files=df  

 memory,500,m
 geomtyp=xyz
 nosym
 noorient
 geometry={
 H         -1.13405        1.76167        0.00000
 C         -1.32915        0.67205        0.00000
 C         -0.06360       -0.12883        0.00000
 C          0.67426       -0.31636        1.28970
 C          0.67426       -0.31636       -1.28970
 H         -1.94006        0.46750        0.88859
 H         -1.94006        0.46750       -0.88859
 H          1.28359        0.56876        1.55544
 H         -0.01165       -0.48291        2.13019
 H          1.36783       -1.16569        1.24157
 H          1.28359        0.56876       -1.55544
 H         -0.01165       -0.48291       -2.13019
 H          1.36783       -1.16569       -1.24157
 }
 basis={ default,sto-3g }
 {ks,PBE,direct;wf,33,1,1}
 {ibba,bonds=1}

 Variables initialized (895), CPU time= 0.00 sec
 Commands  initialized (725), CPU time= 0.02 sec, 591 directives.
 Default parameters read. Elapsed time= 0.08 sec

 Checking input...
 Passed
1


                                         ***  PROGRAM SYSTEM MOLPRO  ***
                                       Copyright, TTI GmbH Stuttgart, 2015
                                    Version 2099.9 linked May 26 2017 16:03:21


 **********************************************************************************************************************************
 LABEL *                                                                                 
  64 bit serial version                                                                  DATE: 08-Jun-17          TIME: 20:24:57  
 **********************************************************************************************************************************

 SHA1:             b4a5b34a9e711420743f49e6833241d17c61fb3c
 **********************************************************************************************************************************
 SETTING GEOMTYP        =    XYZ

 Variable memory set to  500000000 words,  buffer space 

 ZSYMEL=NOSYM

 SETTING BASIS          =    STO-3G


 Recomputing integrals since basis changed


 Using spherical harmonics

 Library entry H      S STO-3G               selected for orbital group  1
 Library entry C      S STO-3G               selected for orbital group  2
 Library entry C      P STO-3G               selected for orbital group  2


 PROGRAM * SEWARD (Integral evaluation for generally contracted gaussian basis sets)     Author: Roland Lindh, 1990

 Geometry written to block  1 of record 700


 Point group  C1  



 ATOMIC COORDINATES

 NR  ATOM    CHARGE       X              Y              Z

   1  H       1.00   -2.143043912    3.329073822    0.000000000
   2  C       6.00   -2.511729478    1.269990442    0.000000000
   3  C       6.00   -0.120186582   -0.243453417    0.000000000
   4  C       6.00    1.274166737   -0.597833757    2.437179783
   5  C       6.00    1.274166737   -0.597833757   -2.437179783
   6  H       1.00   -3.666182065    0.883446963    1.679191737
   7  H       1.00   -3.666182065    0.883446963   -1.679191737
   8  H       1.00    2.425633556    1.074800631    2.939355603
   9  H       1.00   -0.022015309   -0.912567643    4.025475693
  10  H       1.00    2.584824085   -2.202834846    2.346227264
  11  H       1.00    2.425633556    1.074800631   -2.939355603
  12  H       1.00   -0.022015309   -0.912567643   -4.025475693
  13  H       1.00    2.584824085   -2.202834846   -2.346227264

 Bond lengths in Bohr (Angstrom)

 1-2  2.091830159  2-3  2.830192527  2-6  2.074092940  2-7  2.074092940  3-4  2.830132841
     ( 1.106948849)     ( 1.497673388)     ( 1.097562717)     ( 1.097562717)     ( 1.497641803)

  3- 5  2.830132841   4- 8  2.091832255   4- 9  2.074085151   4-10  2.074156104   5-11  2.091832255
       ( 1.497641803)       ( 1.106949959)       ( 1.097558596)       ( 1.097596142)       ( 1.106949959)

  5-12  2.074085151   5-13  2.074156104
       ( 1.097558596)       ( 1.097596142)

 Bond angles

  1-2-3  112.17549786   1-2-6  106.35284965   1-2-7  106.35284965   2-3-4  118.89987932

  2-3-5  118.89987932   3-2-6  111.75744418   3-2-7  111.75744418   3-4-8  112.19808176

  3- 4- 9  111.75014522   3- 4-10  111.74379558   3- 5-11  112.19808176   3- 5-12  111.75014522

  3- 5-13  111.74379558   4- 3- 5  118.89276928   6- 2- 7  108.11431090   8- 4- 9  106.34995457

  8- 4-10  106.34572146   9- 4-10  108.12296896  11- 5-12  106.34995457  11- 5-13  106.34572146

 12- 5-13  108.12296896

 NUCLEAR CHARGE:                   33
 NUMBER OF PRIMITIVE AOS:          87
 NUMBER OF SYMMETRY AOS:           87
 NUMBER OF CONTRACTIONS:           29   (  29A   )
 NUMBER OF CORE ORBITALS:           4   (   4A   )
 NUMBER OF VALENCE ORBITALS:       25   (  25A   )


 NUCLEAR REPULSION ENERGY  124.92676597


 Eigenvalues of metric

         1 0.210E+00 0.225E+00 0.225E+00 0.315E+00 0.353E+00 0.353E+00 0.362E+00 0.372E+00


 Contracted 2-electron integrals neglected if value below      1.0D-11
 AO integral compression algorithm  1   Integral accuracy      1.0D-11

     0.786 MB (compressed) written to integral file (100.0%)


 NUMBER OF SORTED TWO-ELECTRON INTEGRALS:      94830.     BUFFER LENGTH:  32768
 NUMBER OF SEGMENTS:   1  SEGMENT LENGTH:      94830      RECORD LENGTH: 524288

 Memory used in sort:       0.65 MW

 SORT1 READ      108770. AND WROTE       91348. INTEGRALS IN      1 RECORDS. CPU TIME:     0.00 SEC, REAL TIME:     0.01 SEC
 SORT2 READ       91348. AND WROTE       94830. INTEGRALS IN      3 RECORDS. CPU TIME:     0.01 SEC, REAL TIME:     0.01 SEC

 FILE SIZES:   FILE 1:    31.0 MBYTE,  FILE 4:     4.2 MBYTE,   TOTAL:     35.2 MBYTE

 OPERATOR DM      FOR CENTER  0  COORDINATES:    0.000000    0.000000    0.000000


 **********************************************************************************************************************************
 DATASETS  * FILE   NREC   LENGTH (MB)   RECORD NAMES
              1      19       30.62       500      610      700      900      950      970     1000      129      960     1100   
                                          VAR    BASINP    GEOM    SYMINP    ZMAT    AOBASIS   BASIS     P2S    ABASIS      S 
                                         1400     1410     1200     1210     1080     1600     1650     1300     1700   
                                           T        V       H0       H01     AOSYM     SMH    MOLCAS    ERIS     OPER   

 PROGRAMS   *        TOTAL       INT
 CPU TIMES  *         0.62      0.48
 REAL TIME  *         1.18 SEC
 DISK USED  *        35.68 MB      
 **********************************************************************************************************************************

 Density functional group PBE=PBEX+PBEC
 Functional: PBEX(Automatically generated (new) PBEX)                          Gradient terms: 1
 Functional: PBEC(Automatically generated (new) PBEC)                          Gradient terms: 1
 Use grid at  1800.2

 Functional: PBEX                      Factor:  1.0000
 Functional: PBEC                      Factor:  1.0000

 Generated new metagrid on record  1800.2 with target accuracy 1.0D-06 and 45406 points in CPU time    1.4
 Computed new grid on record 1800.1 in CPU time    1.5
   27459 words reserved for DFT integration

 PROGRAM * RKS-SCF (Restricted open shell Kohn-Sham)     Authors: W. Meyer, H.-J. Werner, P.J. Knowles, 1993

 NUMBER OF ELECTRONS:      17+   16-    SPACE SYMMETRY=1    SPIN SYMMETRY: Doublet 
 CONVERGENCE THRESHOLDS:    1.00E-05 (Density)    1.00E-06 (Energy)
 MAX. NUMBER OF ITERATIONS:       60
 INTERPOLATION TYPE:            DIIS
 INTERPOLATION STEPS:              2 (START)      1 (STEP)
 LEVEL SHIFTS:                 -0.60 (CLOSED) -0.30 (OPEN) 



 Use fine grid record 1800.2 for energy threshold  1.0D-06
 Orbital guess generated from atomic densities. Full valence occupancy:   17

 Molecular orbital dump at record        2100.2

 Initial alpha occupancy:  17
 Initial beta  occupancy:  16
 Wave function symmetry:    1

 ITERATION    DDIFF          GRAD             ENERGY        2-EL.EN.            DIPOLE MOMENTS         DIIS   ORB.
    1      0.000D+00      0.000D+00      -155.39310708    413.371887    0.21147    0.42762   -0.00000    0    start
    2      0.000D+00      0.294D-01      -155.66456612    399.674776   -0.00950   -0.01899   -0.00000    1    diag,B
    3      0.617D-01      0.507D-02      -155.67300007    401.471080    0.04002    0.08105   -0.00000    2    diag,B
    4      0.935D-02      0.532D-03      -155.67336182    401.463710    0.04063    0.08225   -0.00000    3    diag,B
    5      0.139D-02      0.177D-03      -155.67340934    401.457794    0.04065    0.08229   -0.00000    4    diag,B
    6      0.575D-03      0.423D-04      -155.67341239    401.457364    0.04020    0.08137   -0.00000    5    diag,B
    7      0.138D-03      0.116D-04      -155.67341253    401.457822    0.04014    0.08126   -0.00000    6    fixocc
    8      0.333D-04      0.172D-05      -155.67341253    401.457832    0.04016    0.08130   -0.00000    7    diag,B
    9      0.525D-05      0.259D-06      -155.67341253    401.457844    0.04016    0.08130   -0.00000    0    orth

 Final alpha occupancy:  17
 Final beta  occupancy:  16

 !RKS STATE 1.1 Energy               -155.673412533356
 Nuclear energy                       124.92676597
 One-electron energy                 -456.47146593
 Two-electron energy                  200.72892196
 Density functional                   -24.85763454     PBEX=-23.78201175 PBEC= -1.07562279
 Virial quotient                       -1.01476093
 !RKS STATE 1.1 Dipole moment           0.04015947     0.08129585    -0.00000000
 Dipole moment /Debye                   0.10206849     0.20661990    -0.00000000

 Orbital energies:

         1.1          2.1          3.1          4.1          5.1          6.1          7.1          8.1          9.1         10.1
     -9.704662    -9.704657    -9.704651    -9.679353    -0.671092    -0.580191    -0.580184    -0.427110    -0.345883    -0.345881

        11.1         12.1         13.1         14.1         15.1         16.1         17.1         18.1         19.1
     -0.341233    -0.296286    -0.296253    -0.280339    -0.247838    -0.247833    -0.058177     0.344054     0.344062

 HOMO     17.1    -0.058177 =      -1.5831eV
 LUMO     18.1     0.344054 =       9.3622eV
 LUMO-HOMO         0.402231 =      10.9453eV


 **********************************************************************************************************************************
 DATASETS  * FILE   NREC   LENGTH (MB)   RECORD NAMES
              1      20       32.07       500      610      700      900      950      970     1000      129      960     1100   
                                          VAR    BASINP    GEOM    SYMINP    ZMAT    AOBASIS   BASIS     P2S    ABASIS      S 
                                         1400     1410     1200     1210     1080     1600     1650     1300     1700     1800   
                                           T        V       H0       H01     AOSYM     SMH    MOLCAS    ERIS     OPER     GRID   

              2       5        2.99       700     1000      520     1800     2100   
                                         GEOM     BASIS   MCVARS    GRID      RKS  

 PROGRAMS   *        TOTAL        KS       INT
 CPU TIMES  *         4.60      3.97      0.48
 REAL TIME  *         5.44 SEC
 DISK USED  *        35.68 MB      
 **********************************************************************************************************************************


 PROGRAM * Intrinsic Basis Bonding Analysis (IBBA)          Author: G. Knizia

 Molecular orbitals read from record     2100.2  Type=RKS/CANONICAL (state 1.1)
 Fock matrix read from record            2100.2  Type=RKS/TOTAL (state 1.1)
 Orbital energies read from record       2100.2  Type=RKS/CANONICAL (state 1.1)
 Density matrix read from record         2100.2  Type=RKS/CHARGE (state 1.1)

 Number of core orbitals:           4 (   4 )
 Number of closed-shell orbitals:  12 (  12 )
 Number of active  orbitals:        1 (   1 )

 Basis set MINAO-AUTO-PP generated.      Number of basis functions:   29 

 Polarized AO type:                A = (O Ot + (1-O)(1-Ot)) P12
 Orthogonalization method:         Symmetric (Loewdin)
 Localization functional:          L = sum[A,i] <i|n_A|i>^4 -> max

 Localization group 1:  16 orbitals, occupancy  2.000
 Iterative localization: IB/PM,    7 iter; Final gradient 0.13E-08

 Bond order analysis:       [THRPRINT= 0.020]

   CEN ATOM   CEN ATOM     WIBERG.BO      RENORM.BO
     1   H  -   2   C       0.926404       0.998465
     1   H  -   3   C       0.031958       0.200100

     2   C  -   3   C       1.067056       1.318899
     2   C  -   7   H       0.955907       0.989450
     2   C  -   6   H       0.955907       0.989450
     2   C  -   1   H       0.926404       0.998465

     3   C  -   2   C       1.067056       1.318899
     3   C  -   5   C       1.067046       1.318858
     3   C  -   4   C       1.067046       1.318858
     3   C  -   1   H       0.031958       0.200100
     3   C  -  11   H       0.031936       0.199963
     3   C  -   8   H       0.031936       0.199963

     4   C  -   3   C       1.067046       1.318858
     4   C  -   9   H       0.955933       0.989442
     4   C  -  10   H       0.955865       0.989463
     4   C  -   8   H       0.926426       0.998461

     5   C  -   3   C       1.067046       1.318858
     5   C  -  12   H       0.955933       0.989442
     5   C  -  13   H       0.955865       0.989463
     5   C  -  11   H       0.926426       0.998461

     6   H  -   2   C       0.955907       0.989450

     7   H  -   2   C       0.955907       0.989450

     8   H  -   4   C       0.926426       0.998461
     8   H  -   3   C       0.031936       0.199963

     9   H  -   4   C       0.955933       0.989442

    10   H  -   4   C       0.955865       0.989463

    11   H  -   5   C       0.926426       0.998461
    11   H  -   3   C       0.031936       0.199963

    12   H  -   5   C       0.955933       0.989442

    13   H  -   5   C       0.955865       0.989463


 Valency analysis:

   CEN ATOM   TOT.VALENCE
     1   H       0.970492
     2   C       3.933937
     3   C       3.338928
     4   C       3.933935
     5   C       3.933935
     6   H       0.979443
     7   H       0.979443
     8   H       0.970494
     9   H       0.979453
    10   H       0.979432
    11   H       0.970494
    12   H       0.979453
    13   H       0.979432
 Localization group 2:   1 orbitals, occupancy  1.000
 Iterative localization: IB/PM,    1 iter; Final gradient 0.00E+00

 Bond order analysis:       [THRPRINT= 0.020]

   CEN ATOM   CEN ATOM     WIBERG.BO      RENORM.BO
     1   H  -   3   C       0.064963       0.500000


     3   C  -   1   H       0.064963       0.500000
     3   C  -  11   H       0.064961       0.500000
     3   C  -   8   H       0.064961       0.500000





     8   H  -   3   C       0.064961       0.500000



    11   H  -   3   C       0.064961       0.500000




 Valency analysis:

   CEN ATOM   TOT.VALENCE
     1   H       0.075490
     2   C       0.005246
     3   C       0.286473
     4   C       0.005234
     5   C       0.005234
     6   H       0.015705
     7   H       0.015705
     8   H       0.075487
     9   H       0.015649
    10   H       0.015782
    11   H       0.075487
    12   H       0.015649
    13   H       0.015782

 Total charge composition:

   CEN ATOM         s          p       ELECTRONS ->P.CHARGE
     1   H       0.86751                 0.86751    0.13249
     2   C       2.99549    3.41567      6.41116   -0.41116
     3   C       2.97365    3.00311      5.97675    0.02325
     4   C       2.99548    3.41568      6.41116   -0.41116
     5   C       2.99548    3.41568      6.41116   -0.41116
     6   H       0.86454                 0.86454    0.13546
     7   H       0.86454                 0.86454    0.13546
     8   H       0.86751                 0.86751    0.13249
     9   H       0.86454                 0.86454    0.13546
    10   H       0.86454                 0.86454    0.13546
    11   H       0.86751                 0.86751    0.13249
    12   H       0.86454                 0.86454    0.13546
    13   H       0.86454                 0.86454    0.13546

 Total charge composition, AO contributions:

   CEN ATOM SHL      SPHERICAL COMPONENTS
     1   H  1s       0.86751

     2   C  1s       1.99192
     2   C  2s       1.00356
     2   C  2p       1.10536    1.13864    1.17167

     3   C  1s       1.99337
     3   C  2s       0.98028
     3   C  2p       1.00049    1.00291    0.99970

     4   C  1s       1.99192
     4   C  2s       1.00355
     4   C  2p       1.14764    1.16424    1.10380

     5   C  1s       1.99192
     5   C  2s       1.00355
     5   C  2p       1.14764    1.16424    1.10380

     6   H  1s       0.86454

     7   H  1s       0.86454

     8   H  1s       0.86751

     9   H  1s       0.86454

    10   H  1s       0.86454

    11   H  1s       0.86751

    12   H  1s       0.86454

    13   H  1s       0.86454

 Active orbital charges:

   CEN ATOM         s          p       ELECTRONS ->SPIN.DEN
     1   H       0.03929                 0.03929    0.03929
     2   C       0.00012    0.00251      0.00263    0.00263
     3   C       0.01655    0.81020      0.82675    0.82675
     4   C       0.00012    0.00250      0.00262    0.00262
     5   C       0.00012    0.00250      0.00262    0.00262
     6   H       0.00792                 0.00792    0.00792
     7   H       0.00792                 0.00792    0.00792
     8   H       0.03929                 0.03929    0.03929
     9   H       0.00789                 0.00789    0.00789
    10   H       0.00795                 0.00795    0.00795
    11   H       0.03929                 0.03929    0.03929
    12   H       0.00789                 0.00789    0.00789
    13   H       0.00795                 0.00795    0.00795

 Active orbital charges, AO contributions:

   CEN ATOM SHL      SPHERICAL COMPONENTS
     1   H  1s       0.03929

     2   C  1s       0.00000
     2   C  2s       0.00012
     2   C  2p       0.00000    0.00251    0.00000

     3   C  1s       0.00001
     3   C  2s       0.01654
     3   C  2p       0.15855    0.65164    0.00000

     4   C  1s       0.00000
     4   C  2s       0.00012
     4   C  2p       0.00088    0.00128    0.00035

     5   C  1s       0.00000
     5   C  2s       0.00012
     5   C  2p       0.00088    0.00128    0.00035

     6   H  1s       0.00792

     7   H  1s       0.00792

     8   H  1s       0.03929

     9   H  1s       0.00789

    10   H  1s       0.00795

    11   H  1s       0.03929

    12   H  1s       0.00789

    13   H  1s       0.00795

 Summary of localized orbital composition:   [THRPRINT= 0.020]

   ORB  GRP  ORB.ENERGY      CENTERS/CHARGES
     1   1    -9.594306      C  2   2.000
     2   1    -9.594301      C  5   2.000
     3   1    -9.594301      C  4   2.000
     4   1    -9.585530      C  3   2.000
     5   1    -0.479096      C  4   1.009   C  3   0.978
     6   1    -0.479096      C  5   1.009   C  3   0.978
     7   1    -0.479076      C  2   1.009   C  3   0.978
     8   1    -0.406657      C  2   1.127   H  1   0.824   C  3   0.046
     9   1    -0.406655      C  4   1.127   H  8   0.824   C  3   0.046
    10   1    -0.406655      C  5   1.127   H 11   0.824   C  3   0.046
    11   1    -0.404637      C  2   1.133   H  7   0.850
    12   1    -0.404637      C  2   1.133   H  6   0.850
    13   1    -0.404635      C  5   1.133   H 12   0.850
    14   1    -0.404635      C  4   1.133   H  9   0.850
    15   1    -0.404614      C  5   1.133   H 13   0.850
    16   1    -0.404614      C  4   1.133   H 10   0.850
    17   2    -0.008426      C  3   0.827   H  1   0.039   H 11   0.039   H  8   0.039   (other: 0.055)

 Localized orbitals saved to record      2100.2  (orbital set 2)


 **********************************************************************************************************************************
 DATASETS  * FILE   NREC   LENGTH (MB)   RECORD NAMES
              1      20       32.07       500      610      700      900      950      970     1000      129      960     1100   
                                          VAR    BASINP    GEOM    SYMINP    ZMAT    AOBASIS   BASIS     P2S    ABASIS      S 
                                         1400     1410     1200     1210     1080     1600     1650     1300     1700     1800   
                                           T        V       H0       H01     AOSYM     SMH    MOLCAS    ERIS     OPER     GRID   

              2       5        3.00       700     1000      520     1800     2100   
                                         GEOM     BASIS   MCVARS    GRID      RKS  

 PROGRAMS   *        TOTAL      IBBA        KS       INT
 CPU TIMES  *         4.63      0.04      3.97      0.48
 REAL TIME  *         5.57 SEC
 DISK USED  *        35.68 MB      
 **********************************************************************************************************************************
 Molecular orbitals read from record     2100.2  Type=RKS/LOCAL(IBO)  
 Occupation numbers read from record     2100.2  Type=RKS/LOCAL(IBO)  
 Orbital energies read from record       2100.2  Type=RKS/LOCAL(IBO)  
 Redundancy group numbers read from rec  2100.2  Type=RKS/LOCAL(IBO)  

 IBBA/STO-3G energy=      0.000000000000

        KS-SCF  
   -155.67341253
 **********************************************************************************************************************************
 Molpro calculation terminated
