
 Primary working directories    : /tmp/sb13343
 Secondary working directories  : /tmp/sb13343
 Wavefunction directory         : /panfs/panasas01/chem/sb13343/wfu/
 Main file repository           : /tmp/sb13343/

 SHA1      : b4a5b34a9e711420743f49e6833241d17c61fb3c
 NAME      : 2099.9.b4a5b34
 ARCHNAME  : linux/x86_64_openmp
 FC        : /cm/shared/languages/GCC-6.1/bin/gfortran
 BLASLIB   : -lblas
 id        : simonbennie

 Nodes     nprocs
 node32-034    1

 Using customized tuning parameters: mindgm=1; mindgv=20; mindgc=4; mindgr=1; noblas=0; minvec=7
 default implementation of scratch files=df  

 memory,500,m
 geomtyp=xyz
 nosym
 noorient
 geometry={
 H         -1.13405        1.76167        0.00000
 C         -1.32915        0.67205        0.00000
 C         -0.06360       -0.12883        0.00000
 C          0.67426       -0.31636        1.28970
 C          0.67426       -0.31636       -1.28970
 H         -1.94006        0.46750        0.88859
 H         -1.94006        0.46750       -0.88859
 H          1.28359        0.56876        1.55544
 H         -0.01165       -0.48291        2.13019
 H          1.36783       -1.16569        1.24157
 H          1.28359        0.56876       -1.55544
 H         -0.01165       -0.48291       -2.13019
 H          1.36783       -1.16569       -1.24157
 }
 basis={ default,svp }
 {ks,M08-HX,direct;wf,33,1,1}
 {ibba,bonds=1}

 Variables initialized (895), CPU time= 0.00 sec
 Commands  initialized (725), CPU time= 0.02 sec, 591 directives.
 Default parameters read. Elapsed time= 0.08 sec

 Checking input...
 Passed
1


                                         ***  PROGRAM SYSTEM MOLPRO  ***
                                       Copyright, TTI GmbH Stuttgart, 2015
                                    Version 2099.9 linked May 26 2017 16:03:21


 **********************************************************************************************************************************
 LABEL *                                                                                 
  64 bit serial version                                                                  DATE: 08-Jun-17          TIME: 20:48:57  
 **********************************************************************************************************************************

 SHA1:             b4a5b34a9e711420743f49e6833241d17c61fb3c
 **********************************************************************************************************************************
 SETTING GEOMTYP        =    XYZ

 Variable memory set to  500000000 words,  buffer space 

 ZSYMEL=NOSYM

 SETTING BASIS          =    SVP


 Recomputing integrals since basis changed


 Using spherical harmonics

 Library entry H      S def2-SVP             selected for orbital group  1
 Library entry H      P def2-SVP             selected for orbital group  1
 Library entry C      S def2-SVP             selected for orbital group  2
 Library entry C      P def2-SVP             selected for orbital group  2
 Library entry C      D def2-SVP             selected for orbital group  2


 PROGRAM * SEWARD (Integral evaluation for generally contracted gaussian basis sets)     Author: Roland Lindh, 1990

 Geometry written to block  1 of record 700


 Point group  C1  



 ATOMIC COORDINATES

 NR  ATOM    CHARGE       X              Y              Z

   1  H       1.00   -2.143043912    3.329073822    0.000000000
   2  C       6.00   -2.511729478    1.269990442    0.000000000
   3  C       6.00   -0.120186582   -0.243453417    0.000000000
   4  C       6.00    1.274166737   -0.597833757    2.437179783
   5  C       6.00    1.274166737   -0.597833757   -2.437179783
   6  H       1.00   -3.666182065    0.883446963    1.679191737
   7  H       1.00   -3.666182065    0.883446963   -1.679191737
   8  H       1.00    2.425633556    1.074800631    2.939355603
   9  H       1.00   -0.022015309   -0.912567643    4.025475693
  10  H       1.00    2.584824085   -2.202834846    2.346227264
  11  H       1.00    2.425633556    1.074800631   -2.939355603
  12  H       1.00   -0.022015309   -0.912567643   -4.025475693
  13  H       1.00    2.584824085   -2.202834846   -2.346227264

 Bond lengths in Bohr (Angstrom)

 1-2  2.091830159  2-3  2.830192527  2-6  2.074092940  2-7  2.074092940  3-4  2.830132841
     ( 1.106948849)     ( 1.497673388)     ( 1.097562717)     ( 1.097562717)     ( 1.497641803)

  3- 5  2.830132841   4- 8  2.091832255   4- 9  2.074085151   4-10  2.074156104   5-11  2.091832255
       ( 1.497641803)       ( 1.106949959)       ( 1.097558596)       ( 1.097596142)       ( 1.106949959)

  5-12  2.074085151   5-13  2.074156104
       ( 1.097558596)       ( 1.097596142)

 Bond angles

  1-2-3  112.17549786   1-2-6  106.35284965   1-2-7  106.35284965   2-3-4  118.89987932

  2-3-5  118.89987932   3-2-6  111.75744418   3-2-7  111.75744418   3-4-8  112.19808176

  3- 4- 9  111.75014522   3- 4-10  111.74379558   3- 5-11  112.19808176   3- 5-12  111.75014522

  3- 5-13  111.74379558   4- 3- 5  118.89276928   6- 2- 7  108.11431090   8- 4- 9  106.34995457

  8- 4-10  106.34572146   9- 4-10  108.12296896  11- 5-12  106.34995457  11- 5-13  106.34572146

 12- 5-13  108.12296896

 NUCLEAR CHARGE:                   33
 NUMBER OF PRIMITIVE AOS:         163
 NUMBER OF SYMMETRY AOS:          159
 NUMBER OF CONTRACTIONS:          101   ( 101A   )
 NUMBER OF CORE ORBITALS:           4   (   4A   )
 NUMBER OF VALENCE ORBITALS:       25   (  25A   )


 NUCLEAR REPULSION ENERGY  124.92676597


 Eigenvalues of metric

         1 0.371E-02 0.424E-02 0.424E-02 0.242E-01 0.242E-01 0.268E-01 0.277E-01 0.371E-01


 Contracted 2-electron integrals neglected if value below      1.0D-11
 AO integral compression algorithm  1   Integral accuracy      1.0D-11

     53.477 MB (compressed) written to integral file ( 46.4%)


 NUMBER OF SORTED TWO-ELECTRON INTEGRALS:   13268976.     BUFFER LENGTH:  32768
 NUMBER OF SEGMENTS:   1  SEGMENT LENGTH:   13268976      RECORD LENGTH: 524288

 Memory used in sort:      13.83 MW

 SORT1 READ    14422061. AND WROTE    12225547. INTEGRALS IN     35 RECORDS. CPU TIME:     0.15 SEC, REAL TIME:     0.31 SEC
 SORT2 READ    12225547. AND WROTE    13268976. INTEGRALS IN    204 RECORDS. CPU TIME:     0.33 SEC, REAL TIME:     0.40 SEC

 FILE SIZES:   FILE 1:    84.0 MBYTE,  FILE 4:   146.8 MBYTE,   TOTAL:    230.9 MBYTE

 OPERATOR DM      FOR CENTER  0  COORDINATES:    0.000000    0.000000    0.000000


 **********************************************************************************************************************************
 DATASETS  * FILE   NREC   LENGTH (MB)   RECORD NAMES
              1      19       77.16       500      610      700      900      950      970     1000      129      960     1100   
                                          VAR    BASINP    GEOM    SYMINP    ZMAT    AOBASIS   BASIS     P2S    ABASIS      S 
                                         1400     1410     1200     1210     1080     1600     1650     1300     1700   
                                           T        V       H0       H01     AOSYM     SMH    MOLCAS    ERIS     OPER   

 PROGRAMS   *        TOTAL       INT
 CPU TIMES  *         2.13      1.99
 REAL TIME  *         2.80 SEC
 DISK USED  *       231.35 MB      
 **********************************************************************************************************************************

 Density functional group M08-HX=XC-M08-HX
 Functional: XC-M08-HX(via MFM 1.6)                                            Gradient terms: 1
 Use grid at  1800.2


 Exact exchange will be calculated, factor:  0.5223

 Functional: XC-M08-HX                 Factor:  1.0000

 Generated new metagrid on record  1800.2 with target accuracy 1.0D-06 and 45406 points in CPU time    1.3
 Computed new grid on record 1800.1 in CPU time    1.4
   84355 words reserved for DFT integration

 PROGRAM * RKS-SCF (Restricted open shell Kohn-Sham)     Authors: W. Meyer, H.-J. Werner, P.J. Knowles, 1993

 NUMBER OF ELECTRONS:      17+   16-    SPACE SYMMETRY=1    SPIN SYMMETRY: Doublet 
 CONVERGENCE THRESHOLDS:    1.00E-05 (Density)    1.00E-06 (Energy)
 MAX. NUMBER OF ITERATIONS:       60
 INTERPOLATION TYPE:            DIIS
 INTERPOLATION STEPS:              2 (START)      1 (STEP)
 LEVEL SHIFTS:                 -0.60 (CLOSED) -0.30 (OPEN) 



 Use fine grid record 1800.2 for energy threshold  1.0D-06
 Orbital guess generated from atomic densities. Full valence occupancy:   17

 Molecular orbital dump at record        2100.2

 Initial alpha occupancy:  17
 Initial beta  occupancy:  16
 Wave function symmetry:    1

 ITERATION    DDIFF          GRAD             ENERGY        2-EL.EN.            DIPOLE MOMENTS         DIIS   ORB.
    1      0.000D+00      0.000D+00      -157.54858688    381.508885    0.13181    0.26661    0.00000    0    start
    2      0.000D+00      0.667D-02      -157.62583353    373.717176    0.06239    0.11328    0.00000    1    diag,B
    3      0.657D-02      0.169D-02      -157.63082371    374.623092    0.06310    0.11344    0.00000    2    diag,B
    4      0.158D-02      0.577D-03      -157.63255035    374.458114    0.05569    0.09628    0.00000    3    diag,B
    5      0.135D-02      0.182D-03      -157.63275152    374.443104    0.05427    0.09282    0.00000    4    diag,B
    6      0.582D-03      0.461D-04      -157.63276609    374.433898    0.05354    0.09130    0.00000    5    diag,B
    7      0.179D-03      0.155D-04      -157.63276838    374.435025    0.05350    0.09120    0.00000    6    fixocc
    8      0.843D-04      0.416D-05      -157.63276860    374.435100    0.05345    0.09111    0.00000    7    diag,B
    9      0.249D-04      0.134D-05      -157.63276862    374.435163    0.05345    0.09112    0.00000    8    diag,B
   10      0.106D-04      0.347D-06      -157.63276862    374.435172    0.05344    0.09112    0.00000    9    orth
   11      0.317D-05      0.106D-06      -157.63276862    374.435167    0.05344    0.09112    0.00000    0    orth

 Final alpha occupancy:  17
 Final beta  occupancy:  16

 !RKS STATE 1.1 Energy               -157.632768622777
 Nuclear energy                       124.92676597
 One-electron energy                 -457.30090056
 Two-electron energy                  187.21758353
 Density functional                   -12.47621757     XC-M08-HX=-12.47621757
 Virial quotient                       -1.01409495
 !RKS STATE 1.1 Dipole moment           0.05344246     0.09111575     0.00000000
 Dipole moment /Debye                   0.13582828     0.23157796     0.00000000

 Orbital energies:

         1.1          2.1          3.1          4.1          5.1          6.1          7.1          8.1          9.1         10.1
    -10.543472   -10.534286   -10.534264   -10.533607    -0.886585    -0.774161    -0.773797    -0.598291    -0.505606    -0.505131

        11.1         12.1         13.1         14.1         15.1         16.1         17.1         18.1         19.1
     -0.496590    -0.444685    -0.444616    -0.427756    -0.403817    -0.403572    -0.225911     0.071271     0.123213

 HOMO     17.1    -0.225911 =      -6.1473eV
 LUMO     18.1     0.071271 =       1.9394eV
 LUMO-HOMO         0.297181 =       8.0867eV


 **********************************************************************************************************************************
 DATASETS  * FILE   NREC   LENGTH (MB)   RECORD NAMES
              1      20       78.61       500      610      700      900      950      970     1000      129      960     1100   
                                          VAR    BASINP    GEOM    SYMINP    ZMAT    AOBASIS   BASIS     P2S    ABASIS      S 
                                         1400     1410     1200     1210     1080     1600     1650     1300     1700     1800   
                                           T        V       H0       H01     AOSYM     SMH    MOLCAS    ERIS     OPER     GRID   

              2       5        3.26       700     1000      520     1800     2100   
                                         GEOM     BASIS   MCVARS    GRID      RKS  

 PROGRAMS   *        TOTAL        KS       INT
 CPU TIMES  *        40.40     38.26      1.99
 REAL TIME  *        41.90 SEC
 DISK USED  *       231.35 MB      
 **********************************************************************************************************************************


 PROGRAM * Intrinsic Basis Bonding Analysis (IBBA)          Author: G. Knizia

 Molecular orbitals read from record     2100.2  Type=RKS/CANONICAL (state 1.1)
 Fock matrix read from record            2100.2  Type=RKS/TOTAL (state 1.1)
 Orbital energies read from record       2100.2  Type=RKS/CANONICAL (state 1.1)
 Density matrix read from record         2100.2  Type=RKS/CHARGE (state 1.1)

 Number of core orbitals:           4 (   4 )
 Number of closed-shell orbitals:  12 (  12 )
 Number of active  orbitals:        1 (   1 )

 Basis set MINAO-AUTO-PP generated.      Number of basis functions:   29 

 Polarized AO type:                A = (O Ot + (1-O)(1-Ot)) P12
 Orthogonalization method:         Symmetric (Loewdin)
 Localization functional:          L = sum[A,i] <i|n_A|i>^4 -> max

 Localization group 1:  16 orbitals, occupancy  2.000
 Iterative localization: IB/PM,    7 iter; Final gradient 0.26E-08

 Bond order analysis:       [THRPRINT= 0.020]

   CEN ATOM   CEN ATOM     WIBERG.BO      RENORM.BO
     1   H  -   2   C       0.928862       0.998710
     1   H  -   3   C       0.032201       0.204227

     2   C  -   3   C       1.065930       1.316044
     2   C  -   6   H       0.956787       0.988415
     2   C  -   7   H       0.956787       0.988415
     2   C  -   1   H       0.928862       0.998710

     3   C  -   5   C       1.066332       1.317276
     3   C  -   4   C       1.066332       1.317276
     3   C  -   2   C       1.065930       1.316044
     3   C  -  11   H       0.032360       0.205248
     3   C  -   8   H       0.032360       0.205248
     3   C  -   1   H       0.032201       0.204227

     4   C  -   3   C       1.066332       1.317276
     4   C  -   9   H       0.956797       0.988419
     4   C  -  10   H       0.956615       0.988403
     4   C  -   8   H       0.928657       0.998717

     5   C  -   3   C       1.066332       1.317276
     5   C  -  12   H       0.956797       0.988419
     5   C  -  13   H       0.956615       0.988403
     5   C  -  11   H       0.928657       0.998717

     6   H  -   2   C       0.956787       0.988415

     7   H  -   2   C       0.956787       0.988415

     8   H  -   4   C       0.928657       0.998717
     8   H  -   3   C       0.032360       0.205248

     9   H  -   4   C       0.956797       0.988419

    10   H  -   4   C       0.956615       0.988403

    11   H  -   5   C       0.928657       0.998717
    11   H  -   3   C       0.032360       0.205248

    12   H  -   5   C       0.956797       0.988419

    13   H  -   5   C       0.956615       0.988403


 Valency analysis:

   CEN ATOM   TOT.VALENCE
     1   H       0.970916
     2   C       3.939254
     3   C       3.335866
     4   C       3.939201
     5   C       3.939201
     6   H       0.979794
     7   H       0.979794
     8   H       0.970863
     9   H       0.979789
    10   H       0.979706
    11   H       0.970863
    12   H       0.979789
    13   H       0.979706
 Localization group 2:   1 orbitals, occupancy  1.000
 Iterative localization: IB/PM,    1 iter; Final gradient 0.00E+00

 Bond order analysis:       [THRPRINT= 0.020]

   CEN ATOM   CEN ATOM     WIBERG.BO      RENORM.BO
     1   H  -   3   C       0.071466       0.500000


     3   C  -  11   H       0.071940       0.500000
     3   C  -   8   H       0.071940       0.500000
     3   C  -   1   H       0.071466       0.500000





     8   H  -   3   C       0.071940       0.500000



    11   H  -   3   C       0.071940       0.500000




 Valency analysis:

   CEN ATOM   TOT.VALENCE
     1   H       0.083440
     2   C       0.002268
     3   C       0.296298
     4   C       0.002419
     5   C       0.002419
     6   H       0.015116
     7   H       0.015116
     8   H       0.083967
     9   H       0.015054
    10   H       0.015335
    11   H       0.083967
    12   H       0.015054
    13   H       0.015335

 Total charge composition:

   CEN ATOM         s          p       ELECTRONS ->P.CHARGE
     1   H       0.87308                 0.87308    0.12692
     2   C       3.01154    3.39503      6.40657   -0.40657
     3   C       2.95934    3.01158      5.97092    0.02908
     4   C       3.01115    3.39419      6.40534   -0.40534
     5   C       3.01115    3.39419      6.40534   -0.40534
     6   H       0.86547                 0.86547    0.13453
     7   H       0.86547                 0.86547    0.13453
     8   H       0.87322                 0.87322    0.12678
     9   H       0.86542                 0.86542    0.13458
    10   H       0.86527                 0.86527    0.13473
    11   H       0.87322                 0.87322    0.12678
    12   H       0.86542                 0.86542    0.13458
    13   H       0.86527                 0.86527    0.13473

 Total charge composition, AO contributions:

   CEN ATOM SHL      SPHERICAL COMPONENTS
     1   H  1s       0.87308

     2   C  1s       1.99061
     2   C  2s       1.02094
     2   C  2p       1.10004    1.13074    1.16425

     3   C  1s       1.99238
     3   C  2s       0.96696
     3   C  2p       1.00422    0.99839    1.00897

     4   C  1s       1.99061
     4   C  2s       1.02055
     4   C  2p       1.14081    1.15567    1.09771

     5   C  1s       1.99061
     5   C  2s       1.02055
     5   C  2p       1.14081    1.15567    1.09771

     6   H  1s       0.86547

     7   H  1s       0.86547

     8   H  1s       0.87322

     9   H  1s       0.86542

    10   H  1s       0.86527

    11   H  1s       0.87322

    12   H  1s       0.86542

    13   H  1s       0.86527

 Active orbital charges:

   CEN ATOM         s          p       ELECTRONS ->SPIN.DEN
     1   H       0.04362                 0.04362    0.04362
     2   C       0.00020    0.00093      0.00114    0.00114
     3   C       0.01630    0.80284      0.81914    0.81914
     4   C       0.00022    0.00099      0.00121    0.00121
     5   C       0.00022    0.00099      0.00121    0.00121
     6   H       0.00762                 0.00762    0.00762
     7   H       0.00762                 0.00762    0.00762
     8   H       0.04391                 0.04391    0.04391
     9   H       0.00758                 0.00758    0.00758
    10   H       0.00773                 0.00773    0.00773
    11   H       0.04391                 0.04391    0.04391
    12   H       0.00758                 0.00758    0.00758
    13   H       0.00773                 0.00773    0.00773

 Active orbital charges, AO contributions:

   CEN ATOM SHL      SPHERICAL COMPONENTS
     1   H  1s       0.04362

     2   C  1s       0.00000
     2   C  2s       0.00020
     2   C  2p       0.00006    0.00088    0.00000

     3   C  1s       0.00001
     3   C  2s       0.01628
     3   C  2p       0.15731    0.64553    0.00000

     4   C  1s       0.00000
     4   C  2s       0.00022
     4   C  2p       0.00040    0.00025    0.00034

     5   C  1s       0.00000
     5   C  2s       0.00022
     5   C  2p       0.00040    0.00025    0.00034

     6   H  1s       0.00762

     7   H  1s       0.00762

     8   H  1s       0.04391

     9   H  1s       0.00758

    10   H  1s       0.00773

    11   H  1s       0.04391

    12   H  1s       0.00758

    13   H  1s       0.00773

 Summary of localized orbital composition:   [THRPRINT= 0.020]

   ORB  GRP  ORB.ENERGY      CENTERS/CHARGES
     1   1   -10.446275      C  3   2.000
     2   1   -10.415221      C  4   2.000
     3   1   -10.415221      C  5   2.000
     4   1   -10.414519      C  2   2.000
     5   1    -0.674496      C  5   1.008   C  3   0.979
     6   1    -0.674496      C  4   1.008   C  3   0.979
     7   1    -0.673768      C  2   1.009   C  3   0.978
     8   1    -0.567668      C  4   1.126   H  8   0.826   C  3   0.046
     9   1    -0.567668      C  5   1.126   H 11   0.826   C  3   0.046
    10   1    -0.567512      C  2   1.126   H  1   0.826   C  3   0.045
    11   1    -0.565955      C  5   1.131   H 13   0.851
    12   1    -0.565955      C  4   1.131   H 10   0.851
    13   1    -0.565699      C  4   1.131   H  9   0.852
    14   1    -0.565699      C  5   1.131   H 12   0.852
    15   1    -0.565044      C  2   1.131   H  6   0.852
    16   1    -0.565044      C  2   1.131   H  7   0.852
    17   2    -0.103023      C  3   0.819   H 11   0.044   H  8   0.044   H  1   0.044   (other: 0.049)

 Localized orbitals saved to record      2100.2  (orbital set 2)


 **********************************************************************************************************************************
 DATASETS  * FILE   NREC   LENGTH (MB)   RECORD NAMES
              1      20       78.61       500      610      700      900      950      970     1000      129      960     1100   
                                          VAR    BASINP    GEOM    SYMINP    ZMAT    AOBASIS   BASIS     P2S    ABASIS      S 
                                         1400     1410     1200     1210     1080     1600     1650     1300     1700     1800   
                                           T        V       H0       H01     AOSYM     SMH    MOLCAS    ERIS     OPER     GRID   

              2       5        3.34       700     1000      520     1800     2100   
                                         GEOM     BASIS   MCVARS    GRID      RKS  

 PROGRAMS   *        TOTAL      IBBA        KS       INT
 CPU TIMES  *        40.44      0.04     38.26      1.99
 REAL TIME  *        42.01 SEC
 DISK USED  *       231.35 MB      
 **********************************************************************************************************************************
 Molecular orbitals read from record     2100.2  Type=RKS/LOCAL(IBO)  
 Occupation numbers read from record     2100.2  Type=RKS/LOCAL(IBO)  
 Orbital energies read from record       2100.2  Type=RKS/LOCAL(IBO)  
 Redundancy group numbers read from rec  2100.2  Type=RKS/LOCAL(IBO)  

 IBBA/SVP energy=      0.000000000000

        KS-SCF  
   -157.63276862
 **********************************************************************************************************************************
 Molpro calculation terminated
