
 Primary working directories    : /tmp/sb13343
 Secondary working directories  : /tmp/sb13343
 Wavefunction directory         : /panfs/panasas01/chem/sb13343/wfu/
 Main file repository           : /tmp/sb13343/

 SHA1      : b4a5b34a9e711420743f49e6833241d17c61fb3c
 NAME      : 2099.9.b4a5b34
 ARCHNAME  : linux/x86_64_openmp
 FC        : /cm/shared/languages/GCC-6.1/bin/gfortran
 BLASLIB   : -lblas
 id        : simonbennie

 Nodes     nprocs
 node33-008    1

 Using customized tuning parameters: mindgm=1; mindgv=20; mindgc=4; mindgr=1; noblas=0; minvec=7
 default implementation of scratch files=df  

 memory,500,m
 geomtyp=xyz
 nosym
 noorient
 geometry={
 C         -1.53233        0.02247        0.00000
 C         -0.00192        0.01421        0.00000
 O          0.37239        1.40356        0.00000
 H          1.34248        1.44036        0.00000
 H         -1.92991       -0.99819        0.00000
 H         -1.90797        0.54382       -0.88653
 H         -1.90797        0.54382        0.88653
 C          0.54303       -0.66466       -1.26580
 C          0.54303       -0.66466        1.26580
 H          0.17836       -0.14752       -2.15943
 H          0.17836       -0.14752        2.15943
 H          0.23752       -1.71600       -1.32280
 H          0.23752       -1.71600        1.32280
 H          1.64084       -0.63767       -1.28032
 H          1.64084       -0.63767        1.28032
 }
 basis={ default,svp }
 {ks,LYP88,direct;wf,42,1,0}
 {ibba,bonds=1}

 Variables initialized (895), CPU time= 0.00 sec
 Commands  initialized (725), CPU time= 0.01 sec, 591 directives.
 Default parameters read. Elapsed time= 0.08 sec

 Checking input...
 Passed
1


                                         ***  PROGRAM SYSTEM MOLPRO  ***
                                       Copyright, TTI GmbH Stuttgart, 2015
                                    Version 2099.9 linked May 26 2017 16:03:21


 **********************************************************************************************************************************
 LABEL *                                                                                 
  64 bit serial version                                                                  DATE: 09-Jun-17          TIME: 03:37:42  
 **********************************************************************************************************************************

 SHA1:             b4a5b34a9e711420743f49e6833241d17c61fb3c
 **********************************************************************************************************************************
 SETTING GEOMTYP        =    XYZ

 Variable memory set to  500000000 words,  buffer space 

 ZSYMEL=NOSYM

 SETTING BASIS          =    SVP


 Recomputing integrals since basis changed


 Using spherical harmonics

 Library entry C      S def2-SVP             selected for orbital group  1
 Library entry C      P def2-SVP             selected for orbital group  1
 Library entry C      D def2-SVP             selected for orbital group  1
 Library entry O      S def2-SVP             selected for orbital group  2
 Library entry O      P def2-SVP             selected for orbital group  2
 Library entry O      D def2-SVP             selected for orbital group  2
 Library entry H      S def2-SVP             selected for orbital group  3
 Library entry H      P def2-SVP             selected for orbital group  3


 PROGRAM * SEWARD (Integral evaluation for generally contracted gaussian basis sets)     Author: Roland Lindh, 1990

 Geometry written to block  1 of record 700


 Point group  C1  



 ATOMIC COORDINATES

 NR  ATOM    CHARGE       X              Y              Z

   1  C       6.00   -2.895684032    0.042462146    0.000000000
   2  C       6.00   -0.003628274    0.026853008    0.000000000
   3  O       8.00    0.703715112    2.652343999    0.000000000
   4  H       1.00    2.536919528    2.721885921    0.000000000
   5  H       1.00   -3.647001345   -1.886305720    0.000000000
   6  H       1.00   -3.605540754    1.027670861   -1.675298901
   7  H       1.00   -3.605540754    1.027670861    1.675298901
   8  C       6.00    1.026177977   -1.256025366   -2.392015328
   9  C       6.00    1.026177977   -1.256025366    2.392015328
  10  H       1.00    0.337051552   -0.278772398   -4.080731285
  11  H       1.00    0.337051552   -0.278772398    4.080731285
  12  H       1.00    0.448847749   -3.242770030   -2.499729718
  13  H       1.00    0.448847749   -3.242770030    2.499729718
  14  H       1.00    3.100738214   -1.205021658   -2.419454152
  15  H       1.00    3.100738214   -1.205021658    2.419454152

 Bond lengths in Bohr (Angstrom)

 1-2  2.892097881  1-5  2.069933136  1-6  2.069096224  1-7  2.069096224  2-3  2.719106031
     ( 1.530432290)     ( 1.095361444)     ( 1.094918569)     ( 1.094918569)     ( 1.438888946)

  2- 8  2.903104402   2- 9  2.903104402   3- 4  1.834522965   8-10  2.069222119   8-12  2.071730422
       ( 1.536256691)       ( 1.536256691)       ( 0.970787746)       ( 1.094985190)       ( 1.096312526)

  8-14  2.075368508   9-11  2.069222119   9-13  2.071730422   9-15  2.075368508
       ( 1.098237719)       ( 1.094985190)       ( 1.096312526)       ( 1.098237719)

 Bond angles

  1-2-3  104.76902697   1-2-8  110.92255387   1-2-9  110.92255387   2-1-5  110.97328220

  2- 1- 6  110.22090701   2- 1- 7  110.22090701   2- 3- 4  107.25071562   2- 8-10  110.21836376

  2- 8-12  111.57747468   2- 8-14  110.77023896   2- 9-11  110.21836376   2- 9-13  111.57747468

  2- 9-15  110.77023896   3- 2- 8  109.53648747   3- 2- 9  109.53648747   5- 1- 6  108.61190457

  5- 1- 7  108.61190457   6- 1- 7  108.12870271   8- 2- 9  110.96453384  10- 8-12  108.52192632

 10- 8-14  108.08997829  11- 9-13  108.52192632  11- 9-15  108.08997829  12- 8-14  107.54424578

 13- 9-15  107.54424578

 NUCLEAR CHARGE:                   42
 NUMBER OF PRIMITIVE AOS:         195
 NUMBER OF SYMMETRY AOS:          190
 NUMBER OF CONTRACTIONS:          120   ( 120A   )
 NUMBER OF CORE ORBITALS:           5   (   5A   )
 NUMBER OF VALENCE ORBITALS:       30   (  30A   )


 NUCLEAR REPULSION ENERGY  198.77359127


 Eigenvalues of metric

         1 0.176E-02 0.546E-02 0.548E-02 0.123E-01 0.248E-01 0.256E-01 0.256E-01 0.275E-01


 Contracted 2-electron integrals neglected if value below      1.0D-11
 AO integral compression algorithm  1   Integral accuracy      1.0D-11

     101.974 MB (compressed) written to integral file ( 44.9%)


 NUMBER OF SORTED TWO-ELECTRON INTEGRALS:   26357430.     BUFFER LENGTH:  32768
 NUMBER OF SEGMENTS:   2  SEGMENT LENGTH:   15997996      RECORD LENGTH: 524288

 Memory used in sort:      16.56 MW

 SORT1 READ    28411733. AND WROTE    24096425. INTEGRALS IN     70 RECORDS. CPU TIME:     0.33 SEC, REAL TIME:     0.66 SEC
 SORT2 READ    24096425. AND WROTE    26357430. INTEGRALS IN    389 RECORDS. CPU TIME:     0.55 SEC, REAL TIME:     0.72 SEC

 FILE SIZES:   FILE 1:   132.7 MBYTE,  FILE 4:   293.6 MBYTE,   TOTAL:    426.4 MBYTE

 OPERATOR DM      FOR CENTER  0  COORDINATES:    0.000000    0.000000    0.000000


 **********************************************************************************************************************************
 DATASETS  * FILE   NREC   LENGTH (MB)   RECORD NAMES
              1      19      120.44       500      610      700      900      950      970     1000      129      960     1100   
                                          VAR    BASINP    GEOM    SYMINP    ZMAT    AOBASIS   BASIS     P2S    ABASIS      S 
                                         1400     1410     1200     1210     1080     1600     1650     1300     1700   
                                           T        V       H0       H01     AOSYM     SMH    MOLCAS    ERIS     OPER   

 PROGRAMS   *        TOTAL       INT
 CPU TIMES  *         3.84      3.69
 REAL TIME  *         4.93 SEC
 DISK USED  *       426.89 MB      
 **********************************************************************************************************************************

 Density functional group LYP88=LYP
 Functional: LYP(Automatically generated (new) LYP)                            Gradient terms: 1
 Use grid at  1800.2

 Functional: LYP                       Factor:  1.0000

 Generated new metagrid on record  1800.2 with target accuracy 1.0D-06 and 53396 points in CPU time    1.6
 Computed new grid on record 1800.1 in CPU time    1.8
   99539 words reserved for DFT integration

 PROGRAM * RKS-SCF (Restricted closed shell Kohn-Sham)     Authors: W. Meyer, H.-J. Werner, P.J. Knowles, 1993

 NUMBER OF ELECTRONS:      21+   21-    SPACE SYMMETRY=1    SPIN SYMMETRY: Singlet 
 CONVERGENCE THRESHOLDS:    1.00E-05 (Density)    1.00E-06 (Energy)
 MAX. NUMBER OF ITERATIONS:       60
 INTERPOLATION TYPE:            DIIS
 INTERPOLATION STEPS:              2 (START)      1 (STEP)
 LEVEL SHIFTS:                  0.00 (CLOSED)  0.00 (OPEN) 



 Use fine grid record 1800.2 for energy threshold  1.0D-06
 Orbital guess generated from atomic densities. Full valence occupancy:   21

 Molecular orbital dump at record        2100.2

 Initial occupancy:  21

 ITERATION    DDIFF          GRAD             ENERGY        2-EL.EN.            DIPOLE MOMENTS         DIIS   ORB.
    1      0.000D+00      0.000D+00      -199.49784800    557.034824    2.22481    8.15881    0.00000    0    start
    2      0.000D+00      0.287D-01      -189.65981207    679.738688   -6.84441  -18.46677    0.00000    1    diag
    3      0.276D+00      0.750D-01      -200.28797846    628.416689    0.68187   -2.98451   -0.00000    2    diag
    4      0.679D-01      0.295D-01      -201.27054350    602.729568   -0.87250   -3.42585    0.00000    3    diag
    5      0.234D-01      0.151D-01      -201.54406724    608.173165    0.21457   -1.15090    0.00000    4    diag
    6      0.165D-01      0.980D-02      -201.68047432    593.189093    0.58463   -0.17255   -0.00000    5    diag
    7      0.218D-01      0.524D-02      -201.72021583    596.093433    0.43944    0.23380   -0.00000    6    diag
    8      0.822D-02      0.146D-02      -201.72400900    594.507949    0.23007    0.08587    0.00000    7    diag
    9      0.297D-02      0.454D-03      -201.72444258    594.684056    0.39170    0.19752    0.00000    8    diag
   10      0.126D-02      0.999D-04      -201.72446915    594.712772    0.35627    0.16628   -0.00000    9    orth
   11      0.293D-03      0.182D-04      -201.72446977    594.713730    0.35736    0.16820    0.00000    9    diag
   12      0.384D-04      0.707D-05      -201.72446985    594.711530    0.35699    0.16837    0.00000    9    diag
   13      0.116D-04      0.302D-05      -201.72446987    594.710893    0.35726    0.16834    0.00000    9    diag
   14      0.574D-05      0.331D-06      -201.72446986    594.710927    0.35716    0.16849    0.00000    0    orth

 Final occupancy:  21

 !RKS STATE 1.1 Energy               -201.724469864893
 Nuclear energy                       198.77359127
 One-electron energy                 -696.50894697
 Two-electron energy                  297.35546347
 Density functional                    -1.34457763     LYP=-1.34457763
 Virial quotient                       -0.92761917
 !RKS STATE 1.1 Dipole moment           0.35715871     0.16849289     0.00000000
 Dipole moment /Debye                   0.90774743     0.42823816     0.00000000

 Orbital energies:

         1.1          2.1          3.1          4.1          5.1          6.1          7.1          8.1          9.1         10.1
    -16.592994    -8.233821    -8.207925    -8.207495    -8.205758    -0.563988    -0.387123    -0.305698    -0.302635    -0.199453

        11.1         12.1         13.1         14.1         15.1         16.1         17.1         18.1         19.1         20.1
     -0.150321    -0.125463    -0.123285    -0.078387    -0.068520    -0.047476    -0.025814    -0.020864    -0.017734     0.029731

        21.1         22.1         23.1
      0.084650     0.171824     0.227891

 HOMO     21.1     0.084650 =       2.3034eV
 LUMO     22.1     0.171824 =       4.6756eV
 LUMO-HOMO         0.087174 =       2.3721eV


 **********************************************************************************************************************************
 DATASETS  * FILE   NREC   LENGTH (MB)   RECORD NAMES
              1      20      122.15       500      610      700      900      950      970     1000      129      960     1100   
                                          VAR    BASINP    GEOM    SYMINP    ZMAT    AOBASIS   BASIS     P2S    ABASIS      S 
                                         1400     1410     1200     1210     1080     1600     1650     1300     1700     1800   
                                           T        V       H0       H01     AOSYM     SMH    MOLCAS    ERIS     OPER     GRID   

              2       5        3.30       700     1000      520     1800     2100   
                                         GEOM     BASIS   MCVARS    GRID      RKS  

 PROGRAMS   *        TOTAL        KS       INT
 CPU TIMES  *        21.53     17.69      3.69
 REAL TIME  *        23.00 SEC
 DISK USED  *       426.89 MB      
 **********************************************************************************************************************************


 PROGRAM * Intrinsic Basis Bonding Analysis (IBBA)          Author: G. Knizia

 Molecular orbitals read from record     2100.2  Type=RKS/CANONICAL (state 1.1)
 Fock matrix read from record            2100.2  Type=RKS/TOTAL (state 1.1)
 Orbital energies read from record       2100.2  Type=RKS/CANONICAL (state 1.1)
 Density matrix read from record         2100.2  Type=RKS/CHARGE (state 1.1)

 Number of core orbitals:           5 (   5 )
 Number of closed-shell orbitals:  16 (  16 )

 Basis set MINAO-AUTO-PP generated.      Number of basis functions:   35 

 Polarized AO type:                A = (O Ot + (1-O)(1-Ot)) P12
 Orthogonalization method:         Symmetric (Loewdin)
 Localization functional:          L = sum[A,i] <i|n_A|i>^4 -> max

 Localization group 1:  21 orbitals, occupancy  2.000
 Iterative localization: IB/PM,    7 iter; Final gradient 0.95E-08

 Bond order analysis:       [THRPRINT= 0.020]

   CEN ATOM   CEN ATOM     WIBERG.BO      RENORM.BO
     1   C  -   2   C       0.975418       0.992730
     1   C  -   5   H       0.955571       0.967165
     1   C  -   6   H       0.947951       0.950618
     1   C  -   7   H       0.947951       0.950618
     1   C  -   3   O       0.037810       0.021505
     1   C  -   4   H       0.024580       0.029016
     1   C  -  14   H       0.020711       0.021418
     1   C  -  15   H       0.020711       0.021418

     2   C  -   3   O       0.988111       0.954332
     2   C  -   9   C       0.980596       0.969366
     2   C  -   8   C       0.980596       0.969366
     2   C  -   1   C       0.975418       0.992730

     3   O  -   2   C       0.988111       0.954332
     3   O  -   4   H       0.926680       0.934833
     3   O  -   8   C       0.056854       0.031582
     3   O  -   9   C       0.056854       0.031582
     3   O  -   1   C       0.037810       0.021505
     3   O  -  12   H       0.036033       0.025382
     3   O  -  13   H       0.036033       0.025382
     3   O  -   5   H       0.022066       0.016834

     4   H  -   3   O       0.926680       0.934833
     4   H  -   1   C       0.024580       0.029016

     5   H  -   1   C       0.955571       0.967165
     5   H  -   3   O       0.022066       0.016834

     6   H  -   1   C       0.947951       0.950618
     6   H  -   9   C       0.024085       0.024458

     7   H  -   1   C       0.947951       0.950618
     7   H  -   8   C       0.024085       0.024458

     8   C  -   2   C       0.980596       0.969366
     8   C  -  10   H       0.949231       0.950252
     8   C  -  14   H       0.948961       0.958287
     8   C  -  12   H       0.946472       0.948483
     8   C  -   3   O       0.056854       0.031582
     8   C  -   7   H       0.024085       0.024458
     8   C  -  11   H       0.023568       0.023907

     9   C  -   2   C       0.980596       0.969366
     9   C  -  11   H       0.949231       0.950252
     9   C  -  15   H       0.948961       0.958287
     9   C  -  13   H       0.946472       0.948483
     9   C  -   3   O       0.056854       0.031582
     9   C  -   6   H       0.024085       0.024458
     9   C  -  10   H       0.023568       0.023907

    10   H  -   8   C       0.949231       0.950252
    10   H  -   9   C       0.023568       0.023907

    11   H  -   9   C       0.949231       0.950252
    11   H  -   8   C       0.023568       0.023907

    12   H  -   8   C       0.946472       0.948483
    12   H  -   3   O       0.036033       0.025382

    13   H  -   9   C       0.946472       0.948483
    13   H  -   3   O       0.036033       0.025382

    14   H  -   8   C       0.948961       0.958287
    14   H  -   1   C       0.020711       0.021418

    15   H  -   9   C       0.948961       0.958287
    15   H  -   1   C       0.020711       0.021418


 Valency analysis:

   CEN ATOM   TOT.VALENCE
     1   C       3.963926
     2   C       3.948941
     3   O       2.191636
     4   H       0.974634
     5   H       0.997965
     6   H       0.998100
     7   H       0.998100
     8   C       3.965312
     9   C       3.965312
    10   H       0.998102
    11   H       0.998102
    12   H       0.998130
    13   H       0.998130
    14   H       0.998802
    15   H       0.998802

 Total charge composition:

   CEN ATOM         s          p       ELECTRONS ->P.CHARGE
     1   C       2.90404    3.26223      6.16627   -0.16627
     2   C       2.83437    2.91167      5.74604    0.25396
     3   O       3.53909    4.70834      8.24743   -0.24743
     4   H       0.84073                 0.84073    0.15927
     5   H       0.95488                 0.95488    0.04512
     6   H       0.95642                 0.95642    0.04358
     7   H       0.95642                 0.95642    0.04358
     8   C       2.92123    3.26611      6.18733   -0.18733
     9   C       2.92123    3.26611      6.18733   -0.18733
    10   H       0.95644                 0.95644    0.04356
    11   H       0.95644                 0.95644    0.04356
    12   H       0.95675                 0.95675    0.04325
    13   H       0.95675                 0.95675    0.04325
    14   H       0.96538                 0.96538    0.03462
    15   H       0.96538                 0.96538    0.03462

 Total charge composition, AO contributions:

   CEN ATOM SHL      SPHERICAL COMPONENTS
     1   C  1s       1.99779
     1   C  2s       0.90624
     1   C  2p       1.04066    1.10609    1.11548

     2   C  1s       1.99840
     2   C  2s       0.83597
     2   C  2p       1.01996    0.87023    1.02147

     3   O  1s       1.99895
     3   O  2s       1.54014
     3   O  2p       1.35051    1.45650    1.90134

     4   H  1s       0.84073

     5   H  1s       0.95488

     6   H  1s       0.95642

     7   H  1s       0.95642

     8   C  1s       1.99783
     8   C  2s       0.92339
     8   C  2p       1.09108    1.10129    1.07374

     9   C  1s       1.99783
     9   C  2s       0.92339
     9   C  2p       1.09108    1.10129    1.07374

    10   H  1s       0.95644

    11   H  1s       0.95644

    12   H  1s       0.95675

    13   H  1s       0.95675

    14   H  1s       0.96538

    15   H  1s       0.96538

 Summary of localized orbital composition:   [THRPRINT= 0.020]

   ORB  GRP  ORB.ENERGY      CENTERS/CHARGES
     1   1   -16.505098      O  3   2.000
     2   1    -8.165992      C  2   2.000
     3   1    -8.128050      C  8   2.000
     4   1    -8.128050      C  9   2.000
     5   1    -8.125997      C  1   2.000
     6   1    -0.360726      O  3   1.200   C  2   0.773   (other: 0.027)
     7   1    -0.333767      O  3   1.173   H  4   0.812
     8   1    -0.222186      C  1   1.001   C  2   0.950   (other: 0.049)
     9   1    -0.219086      C  9   1.025   C  2   0.942   (other: 0.032)
    10   1    -0.219086      C  8   1.025   C  2   0.942   (other: 0.032)
    11   1    -0.149134      C  8   1.025   H 14   0.951   (other: 0.024)
    12   1    -0.149134      C  9   1.025   H 15   0.951   (other: 0.024)
    13   1    -0.145483      C  9   1.043   H 13   0.936   (other: 0.021)
    14   1    -0.145483      C  8   1.043   H 12   0.936   (other: 0.021)
    15   1    -0.144120      C  1   1.038   H  5   0.941   (other: 0.021)
    16   1    -0.143011      C  9   1.043   H 11   0.939
    17   1    -0.143011      C  8   1.043   H 10   0.939
    18   1    -0.141159      C  1   1.042   H  7   0.939
    19   1    -0.141159      C  1   1.042   H  6   0.939
    20   1    -0.096774      O  3   1.959   (other: 0.041)
    21   1     0.056133      O  3   1.901   C  2   0.030   C  9   0.021   C  8   0.021   (other: 0.027)

 Localized orbitals saved to record      2100.2  (orbital set 2)


 **********************************************************************************************************************************
 DATASETS  * FILE   NREC   LENGTH (MB)   RECORD NAMES
              1      20      122.15       500      610      700      900      950      970     1000      129      960     1100   
                                          VAR    BASINP    GEOM    SYMINP    ZMAT    AOBASIS   BASIS     P2S    ABASIS      S 
                                         1400     1410     1200     1210     1080     1600     1650     1300     1700     1800   
                                           T        V       H0       H01     AOSYM     SMH    MOLCAS    ERIS     OPER     GRID   

              2       5        3.42       700     1000      520     1800     2100   
                                         GEOM     BASIS   MCVARS    GRID      RKS  

 PROGRAMS   *        TOTAL      IBBA        KS       INT
 CPU TIMES  *        21.57      0.04     17.69      3.69
 REAL TIME  *        23.13 SEC
 DISK USED  *       426.89 MB      
 **********************************************************************************************************************************
 Molecular orbitals read from record     2100.2  Type=RKS/LOCAL(IBO)  
 Occupation numbers read from record     2100.2  Type=RKS/LOCAL(IBO)  
 Orbital energies read from record       2100.2  Type=RKS/LOCAL(IBO)  
 Redundancy group numbers read from rec  2100.2  Type=RKS/LOCAL(IBO)  

 IBBA/SVP energy=      0.000000000000

        KS-SCF  
   -201.72446986
 **********************************************************************************************************************************
 Molpro calculation terminated
