
 Primary working directories    : /tmp/sb13343
 Secondary working directories  : /tmp/sb13343
 Wavefunction directory         : /panfs/panasas01/chem/sb13343/wfu/
 Main file repository           : /tmp/sb13343/

 SHA1      : b4a5b34a9e711420743f49e6833241d17c61fb3c
 NAME      : 2099.9.b4a5b34
 ARCHNAME  : linux/x86_64_openmp
 FC        : /cm/shared/languages/GCC-6.1/bin/gfortran
 BLASLIB   : -lblas
 id        : simonbennie

 Nodes     nprocs
 node32-029    1

 Using customized tuning parameters: mindgm=1; mindgv=20; mindgc=4; mindgr=1; noblas=0; minvec=7
 default implementation of scratch files=df  

 memory,500,m
 geomtyp=xyz
 nosym
 noorient
 geometry={
 C          0.00000        0.00000        0.00000
 H          0.00000        0.00000        1.10056
 C          1.46209        0.00000       -0.46855
 C         -0.73105       -1.26621       -0.46855
 C         -0.73105        1.26621       -0.46855
 H          1.52118        0.00000       -1.56505
 H         -0.76059       -1.31738       -1.56505
 H         -0.76059        1.31738       -1.56505
 H          1.99755        0.88622       -0.10723
 H          1.99755       -0.88622       -0.10723
 H         -0.23129       -2.17304       -0.10723
 H         -1.76626       -1.28682       -0.10723
 H         -1.76626        1.28682       -0.10723
 H         -0.23129        2.17304       -0.10723
 }
 basis={ default,sto-3g }
 {ks,MM06-2X,direct;wf,34,1,0}
 {ibba,bonds=1}

 Variables initialized (895), CPU time= 0.00 sec
 Commands  initialized (725), CPU time= 0.01 sec, 591 directives.
 Default parameters read. Elapsed time= 0.09 sec

 Checking input...
 Passed
1


                                         ***  PROGRAM SYSTEM MOLPRO  ***
                                       Copyright, TTI GmbH Stuttgart, 2015
                                    Version 2099.9 linked May 26 2017 16:03:21


 **********************************************************************************************************************************
 LABEL *                                                                                 
  64 bit serial version                                                                  DATE: 08-Jun-17          TIME: 23:54:37  
 **********************************************************************************************************************************

 SHA1:             b4a5b34a9e711420743f49e6833241d17c61fb3c
 **********************************************************************************************************************************
 SETTING GEOMTYP        =    XYZ

 Variable memory set to  500000000 words,  buffer space 

 ZSYMEL=NOSYM

 SETTING BASIS          =    STO-3G


 Recomputing integrals since basis changed


 Using spherical harmonics

 Library entry C      S STO-3G               selected for orbital group  1
 Library entry C      P STO-3G               selected for orbital group  1
 Library entry H      S STO-3G               selected for orbital group  2


 PROGRAM * SEWARD (Integral evaluation for generally contracted gaussian basis sets)     Author: Roland Lindh, 1990

 Geometry written to block  1 of record 700


 Point group  C1  



 ATOMIC COORDINATES

 NR  ATOM    CHARGE       X              Y              Z

   1  C       6.00    0.000000000    0.000000000    0.000000000
   2  H       1.00    0.000000000    0.000000000    2.079756984
   3  C       6.00    2.762949669    0.000000000   -0.885431176
   4  C       6.00   -1.381484283   -2.392790116   -0.885431176
   5  C       6.00   -1.381484283    2.392790116   -0.885431176
   6  H       1.00    2.874613586    0.000000000   -2.957515871
   7  H       1.00   -1.437306793   -2.489487402   -2.957515871
   8  H       1.00   -1.437306793    2.489487402   -2.957515871
   9  H       1.00    3.774822420    1.674713086   -0.202635332
  10  H       1.00    3.774822420   -1.674713086   -0.202635332
  11  H       1.00   -0.437074755   -4.106450458   -0.202635332
  12  H       1.00   -3.337747665   -2.431737372   -0.202635332
  13  H       1.00   -3.337747665    2.431737372   -0.202635332
  14  H       1.00   -0.437074755    4.106450458   -0.202635332

 Bond lengths in Bohr (Angstrom)

 1-2  2.079756984  1-3  2.901358172  1-4  2.901367218  1-5  2.901367218  3-6  2.075091279
     ( 1.100560000)     ( 1.535332625)     ( 1.535337412)     ( 1.535337412)     ( 1.098091015)

  3- 9  2.072380406   3-10  2.072380406   4- 7  2.075090722   4-11  2.072378172   4-12  2.072364222
       ( 1.096656483)       ( 1.096656483)       ( 1.098090721)       ( 1.096655301)       ( 1.096647919)

  5- 8  2.075090722   5-13  2.072364222   5-14  2.072378172
       ( 1.098090721)       ( 1.096647919)       ( 1.096655301)

 Bond angles

  1- 3- 6  110.85354902   1- 3- 9  111.37220114   1- 3-10  111.37220114   1- 4- 7  110.85320625

  1- 4-11  111.37204414   1- 4-12  111.37216555   1- 5- 8  110.85320625   1- 5-13  111.37216555

  1- 5-14  111.37204414   2- 1- 3  107.76888332   2- 1- 4  107.76882608   2- 1- 5  107.76882608

  3-1-4  111.11870751   3-1-5  111.11870751   4-1-5  111.11845005   6-3-9  107.62119374

  6- 3-10  107.62119374   7- 4-11  107.62125572   7- 4-12  107.62162102   8- 5-13  107.62162102

  8- 5-14  107.62125572   9- 3-10  107.82352924  11- 4-12  107.82360822  13- 5-14  107.82360822

 NUCLEAR CHARGE:                   34
 NUMBER OF PRIMITIVE AOS:          90
 NUMBER OF SYMMETRY AOS:           90
 NUMBER OF CONTRACTIONS:           30   (  30A   )
 NUMBER OF CORE ORBITALS:           4   (   4A   )
 NUMBER OF VALENCE ORBITALS:       26   (  26A   )


 NUCLEAR REPULSION ENERGY  134.07051350


 Eigenvalues of metric

         1 0.203E+00 0.229E+00 0.229E+00 0.287E+00 0.356E+00 0.362E+00 0.364E+00 0.364E+00


 Contracted 2-electron integrals neglected if value below      1.0D-11
 AO integral compression algorithm  1   Integral accuracy      1.0D-11

     1.049 MB (compressed) written to integral file ( 95.2%)


 NUMBER OF SORTED TWO-ELECTRON INTEGRALS:     108345.     BUFFER LENGTH:  32768
 NUMBER OF SEGMENTS:   1  SEGMENT LENGTH:     108345      RECORD LENGTH: 524288

 Memory used in sort:       0.67 MW

 SORT1 READ      123158. AND WROTE      102148. INTEGRALS IN      1 RECORDS. CPU TIME:     0.00 SEC, REAL TIME:     0.01 SEC
 SORT2 READ      102148. AND WROTE      108345. INTEGRALS IN      4 RECORDS. CPU TIME:     0.02 SEC, REAL TIME:     0.02 SEC

 FILE SIZES:   FILE 1:    31.3 MBYTE,  FILE 4:     4.2 MBYTE,   TOTAL:     35.5 MBYTE

 OPERATOR DM      FOR CENTER  0  COORDINATES:    0.000000    0.000000    0.000000


 **********************************************************************************************************************************
 DATASETS  * FILE   NREC   LENGTH (MB)   RECORD NAMES
              1      19       30.69       500      610      700      900      950      970     1000      129      960     1100   
                                          VAR    BASINP    GEOM    SYMINP    ZMAT    AOBASIS   BASIS     P2S    ABASIS      S 
                                         1400     1410     1200     1210     1080     1600     1650     1300     1700   
                                           T        V       H0       H01     AOSYM     SMH    MOLCAS    ERIS     OPER   

 PROGRAMS   *        TOTAL       INT
 CPU TIMES  *         0.52      0.37
 REAL TIME  *         0.85 SEC
 DISK USED  *        35.98 MB      
 **********************************************************************************************************************************

 Density functional group MM06-2X=M062XX+M062XC
 Functional: M062XX(Automatically generated (new) M062XX)                      Gradient terms: 2
 Functional: M062XC(Automatically generated (new) M062XC)                      Gradient terms: 2
 Use grid at  1800.2


 Exact exchange will be calculated, factor:  0.5400

 Functional: M062XX                    Factor:  0.4600
 Functional: M062XC                    Factor:  1.0000

 Generated new metagrid on record  1800.2 with target accuracy 1.0D-06 and 45620 points in CPU time    1.1
 Computed new grid on record 1800.1 in CPU time    1.3
   51146 words reserved for DFT integration

 PROGRAM * RKS-SCF (Restricted closed shell Kohn-Sham)     Authors: W. Meyer, H.-J. Werner, P.J. Knowles, 1993

 NUMBER OF ELECTRONS:      17+   17-    SPACE SYMMETRY=1    SPIN SYMMETRY: Singlet 
 CONVERGENCE THRESHOLDS:    1.00E-05 (Density)    1.00E-06 (Energy)
 MAX. NUMBER OF ITERATIONS:       60
 INTERPOLATION TYPE:            DIIS
 INTERPOLATION STEPS:              2 (START)      1 (STEP)
 LEVEL SHIFTS:                  0.00 (CLOSED)  0.00 (OPEN) 



 Use fine grid record 1800.2 for energy threshold  1.0D-06
 Orbital guess generated from atomic densities. Full valence occupancy:   17

 Molecular orbital dump at record        2100.2

 Initial occupancy:  17

 ITERATION    DDIFF          GRAD             ENERGY        2-EL.EN.            DIPOLE MOMENTS         DIIS   ORB.
    1      0.000D+00      0.000D+00      -150.39124886    401.363502    0.00004   -0.00000   -0.00552    0    start
    2      0.000D+00      0.242D-01      -150.50458679    387.487084   -0.00073   -0.00000   -0.00953    1    diag
    3      0.620D-01      0.136D-01      -150.55454177    392.322275    0.00004   -0.00000    0.01758    2    diag
    4      0.225D-01      0.159D-03      -150.55454986    392.325009    0.00020   -0.00000    0.01416    3    diag
    5      0.358D-03      0.672D-04      -150.55455097    392.325575    0.00019   -0.00000    0.01467    4    diag
    6      0.126D-03      0.159D-04      -150.55455104    392.325867    0.00018   -0.00000    0.01480    5    diag
    7      0.257D-04      0.480D-06      -150.55455104    392.325847    0.00018   -0.00000    0.01476    6    diag
    8      0.123D-05      0.623D-07      -150.55455104    392.325848    0.00018   -0.00000    0.01477    0    orth

 Final occupancy:  17

 !RKS STATE 1.1 Energy               -150.554551036418
 Nuclear energy                       134.07051350
 One-electron energy                 -474.51310695
 Two-electron energy                  196.16292376
 SCF exchange energy                  -24.29759945     Factor= 0.5400
 Density functional                    -6.27488134     M062XX=-11.10951282 M062XC= -1.16450544
 Virial quotient                       -0.98188855
 !RKS STATE 1.1 Dipole moment           0.00018208    -0.00000000     0.01476948
 Dipole moment /Debye                   0.00046278    -0.00000000     0.03753782

 Orbital energies:

         1.1          2.1          3.1          4.1          5.1          6.1          7.1          8.1          9.1         10.1
     -9.911915    -9.897569    -9.897565    -9.897292    -0.759083    -0.629135    -0.629119    -0.498980    -0.398319    -0.360934

        11.1         12.1         13.1         14.1         15.1         16.1         17.1         18.1         19.1
     -0.360908    -0.307816    -0.307796    -0.285572    -0.236447    -0.236444    -0.233872     0.561521     0.578897

 HOMO     17.1    -0.233872 =      -6.3640eV
 LUMO     18.1     0.561521 =      15.2798eV
 LUMO-HOMO         0.795393 =      21.6438eV


 **********************************************************************************************************************************
 DATASETS  * FILE   NREC   LENGTH (MB)   RECORD NAMES
              1      20       32.15       500      610      700      900      950      970     1000      129      960     1100   
                                          VAR    BASINP    GEOM    SYMINP    ZMAT    AOBASIS   BASIS     P2S    ABASIS      S 
                                         1400     1410     1200     1210     1080     1600     1650     1300     1700     1800   
                                           T        V       H0       H01     AOSYM     SMH    MOLCAS    ERIS     OPER     GRID   

              2       5        3.00       700     1000      520     1800     2100   
                                         GEOM     BASIS   MCVARS    GRID      RKS  

 PROGRAMS   *        TOTAL        KS       INT
 CPU TIMES  *         7.08      6.56      0.37
 REAL TIME  *         7.55 SEC
 DISK USED  *        35.98 MB      
 **********************************************************************************************************************************


 PROGRAM * Intrinsic Basis Bonding Analysis (IBBA)          Author: G. Knizia

 Molecular orbitals read from record     2100.2  Type=RKS/CANONICAL (state 1.1)
 Fock matrix read from record            2100.2  Type=RKS/TOTAL (state 1.1)
 Orbital energies read from record       2100.2  Type=RKS/CANONICAL (state 1.1)
 Density matrix read from record         2100.2  Type=RKS/CHARGE (state 1.1)

 Number of core orbitals:           4 (   4 )
 Number of closed-shell orbitals:  13 (  13 )

 Basis set MINAO-AUTO-PP generated.      Number of basis functions:   30 

 Polarized AO type:                A = (O Ot + (1-O)(1-Ot)) P12
 Orthogonalization method:         Symmetric (Loewdin)
 Localization functional:          L = sum[A,i] <i|n_A|i>^4 -> max

 Localization group 1:  17 orbitals, occupancy  2.000
 Iterative localization: IB/PM,    7 iter; Final gradient 0.29E-08

 Bond order analysis:       [THRPRINT= 0.020]

   CEN ATOM   CEN ATOM     WIBERG.BO      RENORM.BO
     1   C  -   3   C       1.006358       1.007103
     1   C  -   5   C       1.006328       1.007080
     1   C  -   4   C       1.006328       1.007080
     1   C  -   2   H       0.946766       0.965139

     2   H  -   1   C       0.946766       0.965139

     3   C  -   1   C       1.006358       1.007103
     3   C  -   6   H       0.970651       0.985843
     3   C  -   9   H       0.970539       0.987490
     3   C  -  10   H       0.970539       0.987490

     4   C  -   1   C       1.006328       1.007080
     4   C  -   7   H       0.970666       0.985845
     4   C  -  12   H       0.970551       0.987499
     4   C  -  11   H       0.970532       0.987504

     5   C  -   1   C       1.006328       1.007080
     5   C  -   8   H       0.970666       0.985845
     5   C  -  13   H       0.970551       0.987499
     5   C  -  14   H       0.970532       0.987504

     6   H  -   3   C       0.970651       0.985843

     7   H  -   4   C       0.970666       0.985845

     8   H  -   5   C       0.970666       0.985845

     9   H  -   3   C       0.970539       0.987490

    10   H  -   3   C       0.970539       0.987490

    11   H  -   4   C       0.970532       0.987504

    12   H  -   4   C       0.970551       0.987499

    13   H  -   5   C       0.970551       0.987499

    14   H  -   5   C       0.970532       0.987504


 Valency analysis:

   CEN ATOM   TOT.VALENCE
     1   C       3.977193
     2   H       0.988679
     3   C       3.946367
     4   C       3.946364
     5   C       3.946364
     6   H       0.988830
     7   H       0.988843
     8   H       0.988843
     9   H       0.988070
    10   H       0.988070
    11   H       0.988059
    12   H       0.988074
    13   H       0.988074
    14   H       0.988059

 Total charge composition:

   CEN ATOM         s          p       ELECTRONS ->P.CHARGE
     1   C       2.92780    3.16923      6.09702   -0.09702
     2   H       0.89360                 0.89360    0.10640
     3   C       2.96482    3.36244      6.32725   -0.32725
     4   C       2.96479    3.36246      6.32724   -0.32724
     5   C       2.96479    3.36246      6.32724   -0.32724
     6   H       0.89431                 0.89431    0.10569
     7   H       0.89437                 0.89437    0.10563
     8   H       0.89437                 0.89437    0.10563
     9   H       0.89078                 0.89078    0.10922
    10   H       0.89078                 0.89078    0.10922
    11   H       0.89072                 0.89072    0.10928
    12   H       0.89079                 0.89079    0.10921
    13   H       0.89079                 0.89079    0.10921
    14   H       0.89072                 0.89072    0.10928

 Total charge composition, AO contributions:

   CEN ATOM SHL      SPHERICAL COMPONENTS
     1   C  1s       1.99349
     1   C  2s       0.93430
     1   C  2p       1.02558    1.02560    1.11804

     2   H  1s       0.89360

     3   C  1s       1.99307
     3   C  2s       0.97175
     3   C  2p       1.06592    1.15346    1.14306

     4   C  1s       1.99307
     4   C  2s       0.97172
     4   C  2p       1.13156    1.08789    1.14301

     5   C  1s       1.99307
     5   C  2s       0.97172
     5   C  2p       1.13156    1.08789    1.14301

     6   H  1s       0.89431

     7   H  1s       0.89437

     8   H  1s       0.89437

     9   H  1s       0.89078

    10   H  1s       0.89078

    11   H  1s       0.89072

    12   H  1s       0.89079

    13   H  1s       0.89079

    14   H  1s       0.89072

 Summary of localized orbital composition:   [THRPRINT= 0.020]

   ORB  GRP  ORB.ENERGY      CENTERS/CHARGES
     1   1    -9.810152      C  1   2.000
     2   1    -9.789157      C  5   2.000
     3   1    -9.789157      C  4   2.000
     4   1    -9.789148      C  3   2.000
     5   1    -0.473163      C  3   0.995   C  1   0.990
     6   1    -0.473153      C  5   0.995   C  1   0.989
     7   1    -0.473153      C  4   0.995   C  1   0.989
     8   1    -0.426297      C  4   1.108   H 12   0.884
     9   1    -0.426297      C  5   1.108   H 13   0.884
    10   1    -0.426281      C  4   1.108   H 11   0.884
    11   1    -0.426281      C  5   1.108   H 14   0.884
    12   1    -0.426239      C  3   1.108   H 10   0.884
    13   1    -0.426239      C  3   1.108   H  9   0.884
    14   1    -0.424708      C  3   1.105   H  6   0.888
    15   1    -0.424647      C  5   1.105   H  8   0.888
    16   1    -0.424647      C  4   1.105   H  7   0.888
    17   1    -0.420048      C  1   1.097   H  2   0.881   (other: 0.021)

 Localized orbitals saved to record      2100.2  (orbital set 2)


 **********************************************************************************************************************************
 DATASETS  * FILE   NREC   LENGTH (MB)   RECORD NAMES
              1      20       32.15       500      610      700      900      950      970     1000      129      960     1100   
                                          VAR    BASINP    GEOM    SYMINP    ZMAT    AOBASIS   BASIS     P2S    ABASIS      S 
                                         1400     1410     1200     1210     1080     1600     1650     1300     1700     1800   
                                           T        V       H0       H01     AOSYM     SMH    MOLCAS    ERIS     OPER     GRID   

              2       5        3.01       700     1000      520     1800     2100   
                                         GEOM     BASIS   MCVARS    GRID      RKS  

 PROGRAMS   *        TOTAL      IBBA        KS       INT
 CPU TIMES  *         7.11      0.03      6.56      0.37
 REAL TIME  *         7.65 SEC
 DISK USED  *        35.98 MB      
 **********************************************************************************************************************************
 Molecular orbitals read from record     2100.2  Type=RKS/LOCAL(IBO)  
 Occupation numbers read from record     2100.2  Type=RKS/LOCAL(IBO)  
 Orbital energies read from record       2100.2  Type=RKS/LOCAL(IBO)  
 Redundancy group numbers read from rec  2100.2  Type=RKS/LOCAL(IBO)  

 IBBA/STO-3G energy=      0.000000000000

        KS-SCF  
   -150.55455104
 **********************************************************************************************************************************
 Molpro calculation terminated
