
 Primary working directories    : /tmp/sb13343
 Secondary working directories  : /tmp/sb13343
 Wavefunction directory         : /panfs/panasas01/chem/sb13343/wfu/
 Main file repository           : /tmp/sb13343/

 SHA1      : b4a5b34a9e711420743f49e6833241d17c61fb3c
 NAME      : 2099.9.b4a5b34
 ARCHNAME  : linux/x86_64_openmp
 FC        : /cm/shared/languages/GCC-6.1/bin/gfortran
 BLASLIB   : -lblas
 id        : simonbennie

 Nodes     nprocs
 node32-029    1

 Using customized tuning parameters: mindgm=1; mindgv=20; mindgc=4; mindgr=1; noblas=0; minvec=7
 default implementation of scratch files=df  

 memory,500,m
 geomtyp=xyz
 nosym
 noorient
 geometry={
 C          0.00000        0.00000        0.00000
 H          0.00000        0.00000        1.10056
 C          1.46209        0.00000       -0.46855
 C         -0.73105       -1.26621       -0.46855
 C         -0.73105        1.26621       -0.46855
 H          1.52118        0.00000       -1.56505
 H         -0.76059       -1.31738       -1.56505
 H         -0.76059        1.31738       -1.56505
 H          1.99755        0.88622       -0.10723
 H          1.99755       -0.88622       -0.10723
 H         -0.23129       -2.17304       -0.10723
 H         -1.76626       -1.28682       -0.10723
 H         -1.76626        1.28682       -0.10723
 H         -0.23129        2.17304       -0.10723
 }
 basis={ default,svp }
 {uks,B-VWN,direct;wf,34,1,0}
 {ibba,bonds=1}

 Variables initialized (895), CPU time= 0.00 sec
 Commands  initialized (725), CPU time= 0.02 sec, 591 directives.
 Default parameters read. Elapsed time= 0.09 sec

 Checking input...
 Passed
1


                                         ***  PROGRAM SYSTEM MOLPRO  ***
                                       Copyright, TTI GmbH Stuttgart, 2015
                                    Version 2099.9 linked May 26 2017 16:03:21


 **********************************************************************************************************************************
 LABEL *                                                                                 
  64 bit serial version                                                                  DATE: 09-Jun-17          TIME: 00:03:41  
 **********************************************************************************************************************************

 SHA1:             b4a5b34a9e711420743f49e6833241d17c61fb3c
 **********************************************************************************************************************************
 SETTING GEOMTYP        =    XYZ

 Variable memory set to  500000000 words,  buffer space 

 ZSYMEL=NOSYM

 SETTING BASIS          =    SVP


 Recomputing integrals since basis changed


 Using spherical harmonics

 Library entry C      S def2-SVP             selected for orbital group  1
 Library entry C      P def2-SVP             selected for orbital group  1
 Library entry C      D def2-SVP             selected for orbital group  1
 Library entry H      S def2-SVP             selected for orbital group  2
 Library entry H      P def2-SVP             selected for orbital group  2


 PROGRAM * SEWARD (Integral evaluation for generally contracted gaussian basis sets)     Author: Roland Lindh, 1990

 Geometry written to block  1 of record 700


 Point group  C1  



 ATOMIC COORDINATES

 NR  ATOM    CHARGE       X              Y              Z

   1  C       6.00    0.000000000    0.000000000    0.000000000
   2  H       1.00    0.000000000    0.000000000    2.079756984
   3  C       6.00    2.762949669    0.000000000   -0.885431176
   4  C       6.00   -1.381484283   -2.392790116   -0.885431176
   5  C       6.00   -1.381484283    2.392790116   -0.885431176
   6  H       1.00    2.874613586    0.000000000   -2.957515871
   7  H       1.00   -1.437306793   -2.489487402   -2.957515871
   8  H       1.00   -1.437306793    2.489487402   -2.957515871
   9  H       1.00    3.774822420    1.674713086   -0.202635332
  10  H       1.00    3.774822420   -1.674713086   -0.202635332
  11  H       1.00   -0.437074755   -4.106450458   -0.202635332
  12  H       1.00   -3.337747665   -2.431737372   -0.202635332
  13  H       1.00   -3.337747665    2.431737372   -0.202635332
  14  H       1.00   -0.437074755    4.106450458   -0.202635332

 Bond lengths in Bohr (Angstrom)

 1-2  2.079756984  1-3  2.901358172  1-4  2.901367218  1-5  2.901367218  3-6  2.075091279
     ( 1.100560000)     ( 1.535332625)     ( 1.535337412)     ( 1.535337412)     ( 1.098091015)

  3- 9  2.072380406   3-10  2.072380406   4- 7  2.075090722   4-11  2.072378172   4-12  2.072364222
       ( 1.096656483)       ( 1.096656483)       ( 1.098090721)       ( 1.096655301)       ( 1.096647919)

  5- 8  2.075090722   5-13  2.072364222   5-14  2.072378172
       ( 1.098090721)       ( 1.096647919)       ( 1.096655301)

 Bond angles

  1- 3- 6  110.85354902   1- 3- 9  111.37220114   1- 3-10  111.37220114   1- 4- 7  110.85320625

  1- 4-11  111.37204414   1- 4-12  111.37216555   1- 5- 8  110.85320625   1- 5-13  111.37216555

  1- 5-14  111.37204414   2- 1- 3  107.76888332   2- 1- 4  107.76882608   2- 1- 5  107.76882608

  3-1-4  111.11870751   3-1-5  111.11870751   4-1-5  111.11845005   6-3-9  107.62119374

  6- 3-10  107.62119374   7- 4-11  107.62125572   7- 4-12  107.62162102   8- 5-13  107.62162102

  8- 5-14  107.62125572   9- 3-10  107.82352924  11- 4-12  107.82360822  13- 5-14  107.82360822

 NUCLEAR CHARGE:                   34
 NUMBER OF PRIMITIVE AOS:         170
 NUMBER OF SYMMETRY AOS:          166
 NUMBER OF CONTRACTIONS:          106   ( 106A   )
 NUMBER OF CORE ORBITALS:           4   (   4A   )
 NUMBER OF VALENCE ORBITALS:       26   (  26A   )


 NUCLEAR REPULSION ENERGY  134.07051350


 Eigenvalues of metric

         1 0.225E-02 0.614E-02 0.614E-02 0.233E-01 0.256E-01 0.268E-01 0.268E-01 0.277E-01


 Contracted 2-electron integrals neglected if value below      1.0D-11
 AO integral compression algorithm  1   Integral accuracy      1.0D-11

     64.750 MB (compressed) written to integral file ( 46.7%)


 NUMBER OF SORTED TWO-ELECTRON INTEGRALS:   16082956.     BUFFER LENGTH:  32768
 NUMBER OF SEGMENTS:   2  SEGMENT LENGTH:   15997996      RECORD LENGTH: 524288

 Memory used in sort:      16.56 MW

 SORT1 READ    17384690. AND WROTE    14795173. INTEGRALS IN     44 RECORDS. CPU TIME:     0.25 SEC, REAL TIME:     0.54 SEC
 SORT2 READ    14795173. AND WROTE    16082956. INTEGRALS IN    247 RECORDS. CPU TIME:     0.47 SEC, REAL TIME:     0.60 SEC

 FILE SIZES:   FILE 1:    95.4 MBYTE,  FILE 4:   184.6 MBYTE,   TOTAL:    279.9 MBYTE

 OPERATOR DM      FOR CENTER  0  COORDINATES:    0.000000    0.000000    0.000000


 **********************************************************************************************************************************
 DATASETS  * FILE   NREC   LENGTH (MB)   RECORD NAMES
              1      19       87.57       500      610      700      900      950      970     1000      129      960     1100   
                                          VAR    BASINP    GEOM    SYMINP    ZMAT    AOBASIS   BASIS     P2S    ABASIS      S 
                                         1400     1410     1200     1210     1080     1600     1650     1300     1700   
                                           T        V       H0       H01     AOSYM     SMH    MOLCAS    ERIS     OPER   

 PROGRAMS   *        TOTAL       INT
 CPU TIMES  *         2.99      2.84
 REAL TIME  *         3.98 SEC
 DISK USED  *       280.45 MB      
 **********************************************************************************************************************************

 Density functional group B-VWN=B88+VWN5
 Functional: B88(Automatically generated (new) B88)                            Gradient terms: 1
 Functional: VWN5(Automatically generated (new) VWN5)                          Gradient terms: 0
 Use grid at  1800.2

 Functional: B88                       Factor:  1.0000
 Functional: VWN5                      Factor:  1.0000

 Generated new metagrid on record  1800.2 with target accuracy 1.0D-06 and 45620 points in CPU time    1.2
 Computed new grid on record 1800.1 in CPU time    1.3
   88342 words reserved for DFT integration

 PROGRAM * UKS-SCF (Unrestricted Kohn-Sham)     Authors: W. Meyer, H.-J. Werner, P.J. Knowles, 1993

 NUMBER OF ELECTRONS:      17+   17-    SPACE SYMMETRY=1    SPIN SYMMETRY: Singlet 
 CONVERGENCE THRESHOLDS:    1.00E-05 (Density)    1.00E-06 (Energy)
 MAX. NUMBER OF ITERATIONS:       60
 INTERPOLATION TYPE:            DIIS
 INTERPOLATION STEPS:              2 (START)      1 (STEP)
 LEVEL SHIFTS:                 -0.20 (ALPHA)  -0.20 (BETA) 



 Use fine grid record 1800.2 for energy threshold  1.0D-06
 Orbital guess generated from atomic densities. Full valence occupancy:   17

 Molecular orbital dump at record        2200.2

 Initial alpha occupation  17
 Initial beta  occupation  17

 ITERATION    DDIFF          GRAD             ENERGY        2-EL.EN.            DIPOLE MOMENTS         DIIS
    1      0.000D+00      0.000D+00      -158.94315523    434.976110   -0.00016   -0.00000   -0.01921    0
    2      0.155D-01      0.667D-02      -159.18028780    413.585784   -0.00025   -0.00000   -0.00192    1
    3      0.504D-02      0.325D-02      -159.23645713    419.534263   -0.00024   -0.00000    0.04139    2
    4      0.118D-02      0.280D-03      -159.23732276    419.311216   -0.00025   -0.00000    0.03315    3
    5      0.698D-03      0.114D-03      -159.23751400    419.262641   -0.00026   -0.00000    0.03550    4
    6      0.363D-03      0.445D-04      -159.23754602    419.223157   -0.00028   -0.00000    0.03904    5
    7      0.812D-04      0.134D-04      -159.23754814    419.226627   -0.00028   -0.00000    0.03609    6
    8      0.195D-04      0.312D-05      -159.23754827    419.225988   -0.00028   -0.00000    0.03735    6
    9      0.487D-05      0.661D-06      -159.23754828    419.226064   -0.00028   -0.00000    0.03713    6
   10      0.101D-05      0.129D-06      -159.23754828    419.225999   -0.00028   -0.00000    0.03716    7

 Final alpha occupancy:  17
 Final beta  occupancy:  17

 !UKS STATE 1.1 Energy               -159.237548276721
 Nuclear energy                       134.07051350
 One-electron energy                 -476.56287083
 Two-electron energy                  209.61299945
 Density functional                   -26.35819039     B88=-24.26864783 VWN5= -2.08954256
 Virial quotient                       -1.01768470
 !UKS STATE 1.1 Dipole moment          -0.00028000    -0.00000000     0.03716164
 Dipole moment /Debye                  -0.00071165    -0.00000000     0.09444928

 Orbital energies for positive spin:

         1.1          2.1          3.1          4.1          5.1          6.1          7.1          8.1          9.1         10.1
     -9.959757    -9.948177    -9.948159    -9.948141    -0.726098    -0.616387    -0.616382    -0.505688    -0.420526    -0.391593

        11.1         12.1         13.1         14.1         15.1         16.1         17.1         18.1         19.1
     -0.391584    -0.348427    -0.348416    -0.330545    -0.298266    -0.298266    -0.292727     0.026227     0.067478

 Orbital energies for negative spin:

         1.1          2.1          3.1          4.1          5.1          6.1          7.1          8.1          9.1         10.1
     -9.959757    -9.948177    -9.948159    -9.948141    -0.726098    -0.616387    -0.616382    -0.505688    -0.420526    -0.391593

        11.1         12.1         13.1         14.1         15.1         16.1         17.1         18.1         19.1
     -0.391584    -0.348427    -0.348416    -0.330545    -0.298266    -0.298266    -0.292727     0.026227     0.067478

 HOMO     17.1    -0.292727 =      -7.9655eV
 LUMO     18.1     0.026227 =       0.7137eV
 LUMO-HOMO         0.318954 =       8.6792eV

 EXPECTATION VALUE OF S**2:            -0.00000000

 Natural orbitals saved to record    2200.2 (Orbital set 3)

 Orbital spaces for UNO-CAS (Min. occupation: 0.020  Max. occupation: 1.980):

 Closed:       17
 Active:        0


 **********************************************************************************************************************************
 DATASETS  * FILE   NREC   LENGTH (MB)   RECORD NAMES
              1      20       89.03       500      610      700      900      950      970     1000      129      960     1100   
                                          VAR    BASINP    GEOM    SYMINP    ZMAT    AOBASIS   BASIS     P2S    ABASIS      S 
                                         1400     1410     1200     1210     1080     1600     1650     1300     1700     1800   
                                           T        V       H0       H01     AOSYM     SMH    MOLCAS    ERIS     OPER     GRID   

              2       5        3.45       700     1000      520     1800     2200   
                                         GEOM     BASIS   MCVARS    GRID      UKS  

 PROGRAMS   *        TOTAL       UKS       INT
 CPU TIMES  *        19.75     16.76      2.84
 REAL TIME  *        21.77 SEC
 DISK USED  *       280.45 MB      
 **********************************************************************************************************************************


 PROGRAM * Intrinsic Basis Bonding Analysis (IBBA)          Author: G. Knizia

 Molecular orbitals read from record     2200.2  Type=UKS/ALPHA (state 1.1)
 Fock matrix read from record            2200.2  Type=UKS/TOTAL (state 1.1)
 Orbital energies read from record       2200.2  Type=UKS/ALPHA (state 1.1)
 Density matrix read from record         2200.2  Type=UKS/CHARGE (state 1.1)

 Number of core orbitals:           4 (   4 )
 Number of closed-shell orbitals:  13 (  13 )

 Basis set MINAO-AUTO-PP generated.      Number of basis functions:   30 

 Polarized AO type:                A = (O Ot + (1-O)(1-Ot)) P12
 Orthogonalization method:         Symmetric (Loewdin)
 Localization functional:          L = sum[A,i] <i|n_A|i>^4 -> max

 Localization group 1:  17 orbitals, occupancy  2.000
 Iterative localization: IB/PM,    7 iter; Final gradient 0.60E-09

 Bond order analysis:       [THRPRINT= 0.020]

   CEN ATOM   CEN ATOM     WIBERG.BO      RENORM.BO
     1   C  -   3   C       1.014246       1.010413
     1   C  -   5   C       1.014235       1.010397
     1   C  -   4   C       1.014235       1.010397
     1   C  -   2   H       0.935510       0.955876

     2   H  -   1   C       0.935510       0.955876

     3   C  -   1   C       1.014246       1.010413
     3   C  -   9   H       0.967233       0.983270
     3   C  -  10   H       0.967233       0.983270
     3   C  -   6   H       0.965605       0.978335

     4   C  -   1   C       1.014235       1.010397
     4   C  -  11   H       0.967243       0.983274
     4   C  -  12   H       0.967227       0.983276
     4   C  -   7   H       0.965589       0.978331

     5   C  -   1   C       1.014235       1.010397
     5   C  -  14   H       0.967243       0.983274
     5   C  -  13   H       0.967227       0.983276
     5   C  -   8   H       0.965589       0.978331

     6   H  -   3   C       0.965605       0.978335

     7   H  -   4   C       0.965589       0.978331

     8   H  -   5   C       0.965589       0.978331

     9   H  -   3   C       0.967233       0.983270

    10   H  -   3   C       0.967233       0.983270

    11   H  -   4   C       0.967243       0.983274

    12   H  -   4   C       0.967227       0.983276

    13   H  -   5   C       0.967227       0.983276

    14   H  -   5   C       0.967243       0.983274


 Valency analysis:

   CEN ATOM   TOT.VALENCE
     1   C       3.984209
     2   H       0.987812
     3   C       3.950375
     4   C       3.950354
     5   C       3.950354
     6   H       0.986583
     7   H       0.986569
     8   H       0.986569
     9   H       0.985628
    10   H       0.985628
    11   H       0.985636
    12   H       0.985617
    13   H       0.985617
    14   H       0.985636

 Total charge composition:

   CEN ATOM         s          p       ELECTRONS ->P.CHARGE
     1   C       2.95377    3.11127      6.06504   -0.06504
     2   H       0.88960                 0.88960    0.11040
     3   C       3.02214    3.34858      6.37072   -0.37072
     4   C       3.02214    3.34864      6.37079   -0.37079
     5   C       3.02214    3.34864      6.37079   -0.37079
     6   H       0.88417                 0.88417    0.11583
     7   H       0.88411                 0.88411    0.11589
     8   H       0.88411                 0.88411    0.11589
     9   H       0.88012                 0.88012    0.11988
    10   H       0.88012                 0.88012    0.11988
    11   H       0.88015                 0.88015    0.11985
    12   H       0.88007                 0.88007    0.11993
    13   H       0.88007                 0.88007    0.11993
    14   H       0.88015                 0.88015    0.11985

 Total charge composition, AO contributions:

   CEN ATOM SHL      SPHERICAL COMPONENTS
     1   C  1s       1.99177
     1   C  2s       0.96200
     1   C  2p       1.00502    1.00503    1.10122

     2   H  1s       0.88960

     3   C  1s       1.99119
     3   C  2s       1.03095
     3   C  2p       1.06281    1.14856    1.13721

     4   C  1s       1.99119
     4   C  2s       1.03095
     4   C  2p       1.12715    1.08422    1.13727

     5   C  1s       1.99119
     5   C  2s       1.03095
     5   C  2p       1.12715    1.08422    1.13727

     6   H  1s       0.88417

     7   H  1s       0.88411

     8   H  1s       0.88411

     9   H  1s       0.88012

    10   H  1s       0.88012

    11   H  1s       0.88015

    12   H  1s       0.88007

    13   H  1s       0.88007

    14   H  1s       0.88015

 Summary of localized orbital composition:   [THRPRINT= 0.020]

   ORB  GRP  ORB.ENERGY      CENTERS/CHARGES
     1   1    -9.858938      C  1   2.000
     2   1    -9.837192      C  3   2.000
     3   1    -9.837169      C  5   2.000
     4   1    -9.837169      C  4   2.000
     5   1    -0.504201      C  3   1.006   C  1   0.977
     6   1    -0.504195      C  4   1.006   C  1   0.977
     7   1    -0.504195      C  5   1.006   C  1   0.977
     8   1    -0.451310      C  3   1.118   H 10   0.873
     9   1    -0.451310      C  3   1.118   H  9   0.873
    10   1    -0.451305      C  4   1.118   H 11   0.873
    11   1    -0.451305      C  5   1.118   H 14   0.873
    12   1    -0.451295      C  5   1.118   H 13   0.873
    13   1    -0.451295      C  4   1.118   H 12   0.873
    14   1    -0.450782      C  3   1.114   H  6   0.877
    15   1    -0.450759      C  5   1.115   H  8   0.877
    16   1    -0.450759      C  4   1.115   H  7   0.877
    17   1    -0.445989      C  1   1.093   H  2   0.877   (other: 0.030)

 Localized orbitals saved to record      2200.2  (orbital set 4)


 **********************************************************************************************************************************
 DATASETS  * FILE   NREC   LENGTH (MB)   RECORD NAMES
              1      20       89.03       500      610      700      900      950      970     1000      129      960     1100   
                                          VAR    BASINP    GEOM    SYMINP    ZMAT    AOBASIS   BASIS     P2S    ABASIS      S 
                                         1400     1410     1200     1210     1080     1600     1650     1300     1700     1800   
                                           T        V       H0       H01     AOSYM     SMH    MOLCAS    ERIS     OPER     GRID   

              2       5        3.54       700     1000      520     1800     2200   
                                         GEOM     BASIS   MCVARS    GRID      UKS  

 PROGRAMS   *        TOTAL      IBBA       UKS       INT
 CPU TIMES  *        19.79      0.03     16.76      2.84
 REAL TIME  *        21.89 SEC
 DISK USED  *       280.45 MB      
 **********************************************************************************************************************************
 Molecular orbitals read from record     2200.2  Type=UKS/LOCAL(IBO)  
 Occupation numbers read from record     2200.2  Type=UKS/LOCAL(IBO)  
 Orbital energies read from record       2200.2  Type=UKS/LOCAL(IBO)  
 Redundancy group numbers read from rec  2200.2  Type=UKS/BETA (state 1.1)

 IBBA/SVP energy=      0.000000000000

        UKS-SCF 
   -159.23754828
 **********************************************************************************************************************************
 Molpro calculation terminated
