
 Primary working directories    : /tmp/sb13343
 Secondary working directories  : /tmp/sb13343
 Wavefunction directory         : /panfs/panasas01/chem/sb13343/wfu/
 Main file repository           : /tmp/sb13343/

 SHA1      : b4a5b34a9e711420743f49e6833241d17c61fb3c
 NAME      : 2099.9.b4a5b34
 ARCHNAME  : linux/x86_64_openmp
 FC        : /cm/shared/languages/GCC-6.1/bin/gfortran
 BLASLIB   : -lblas
 id        : simonbennie

 Nodes     nprocs
 node32-030    1

 Using customized tuning parameters: mindgm=1; mindgv=20; mindgc=4; mindgr=1; noblas=0; minvec=7
 default implementation of scratch files=df  

 memory,500,m
 geomtyp=xyz
 nosym
 noorient
 geometry={
 H         -1.13405        1.76167        0.00000
 C         -1.32915        0.67205        0.00000
 C         -0.06360       -0.12883        0.00000
 C          0.67426       -0.31636        1.28970
 C          0.67426       -0.31636       -1.28970
 H         -1.94006        0.46750        0.88859
 H         -1.94006        0.46750       -0.88859
 H          1.28359        0.56876        1.55544
 H         -0.01165       -0.48291        2.13019
 H          1.36783       -1.16569        1.24157
 H          1.28359        0.56876       -1.55544
 H         -0.01165       -0.48291       -2.13019
 H          1.36783       -1.16569       -1.24157
 }
 basis={ default,sto-3g }
 {uks,HFS,direct;wf,33,1,1}
 {ibba,bonds=1}

 Variables initialized (895), CPU time= 0.01 sec
 Commands  initialized (725), CPU time= 0.01 sec, 591 directives.
 Default parameters read. Elapsed time= 0.08 sec

 Checking input...
 Passed
1


                                         ***  PROGRAM SYSTEM MOLPRO  ***
                                       Copyright, TTI GmbH Stuttgart, 2015
                                    Version 2099.9 linked May 26 2017 16:03:21


 **********************************************************************************************************************************
 LABEL *                                                                                 
  64 bit serial version                                                                  DATE: 08-Jun-17          TIME: 20:20:41  
 **********************************************************************************************************************************

 SHA1:             b4a5b34a9e711420743f49e6833241d17c61fb3c
 **********************************************************************************************************************************
 SETTING GEOMTYP        =    XYZ

 Variable memory set to  500000000 words,  buffer space 

 ZSYMEL=NOSYM

 SETTING BASIS          =    STO-3G


 Recomputing integrals since basis changed


 Using spherical harmonics

 Library entry H      S STO-3G               selected for orbital group  1
 Library entry C      S STO-3G               selected for orbital group  2
 Library entry C      P STO-3G               selected for orbital group  2


 PROGRAM * SEWARD (Integral evaluation for generally contracted gaussian basis sets)     Author: Roland Lindh, 1990

 Geometry written to block  1 of record 700


 Point group  C1  



 ATOMIC COORDINATES

 NR  ATOM    CHARGE       X              Y              Z

   1  H       1.00   -2.143043912    3.329073822    0.000000000
   2  C       6.00   -2.511729478    1.269990442    0.000000000
   3  C       6.00   -0.120186582   -0.243453417    0.000000000
   4  C       6.00    1.274166737   -0.597833757    2.437179783
   5  C       6.00    1.274166737   -0.597833757   -2.437179783
   6  H       1.00   -3.666182065    0.883446963    1.679191737
   7  H       1.00   -3.666182065    0.883446963   -1.679191737
   8  H       1.00    2.425633556    1.074800631    2.939355603
   9  H       1.00   -0.022015309   -0.912567643    4.025475693
  10  H       1.00    2.584824085   -2.202834846    2.346227264
  11  H       1.00    2.425633556    1.074800631   -2.939355603
  12  H       1.00   -0.022015309   -0.912567643   -4.025475693
  13  H       1.00    2.584824085   -2.202834846   -2.346227264

 Bond lengths in Bohr (Angstrom)

 1-2  2.091830159  2-3  2.830192527  2-6  2.074092940  2-7  2.074092940  3-4  2.830132841
     ( 1.106948849)     ( 1.497673388)     ( 1.097562717)     ( 1.097562717)     ( 1.497641803)

  3- 5  2.830132841   4- 8  2.091832255   4- 9  2.074085151   4-10  2.074156104   5-11  2.091832255
       ( 1.497641803)       ( 1.106949959)       ( 1.097558596)       ( 1.097596142)       ( 1.106949959)

  5-12  2.074085151   5-13  2.074156104
       ( 1.097558596)       ( 1.097596142)

 Bond angles

  1-2-3  112.17549786   1-2-6  106.35284965   1-2-7  106.35284965   2-3-4  118.89987932

  2-3-5  118.89987932   3-2-6  111.75744418   3-2-7  111.75744418   3-4-8  112.19808176

  3- 4- 9  111.75014522   3- 4-10  111.74379558   3- 5-11  112.19808176   3- 5-12  111.75014522

  3- 5-13  111.74379558   4- 3- 5  118.89276928   6- 2- 7  108.11431090   8- 4- 9  106.34995457

  8- 4-10  106.34572146   9- 4-10  108.12296896  11- 5-12  106.34995457  11- 5-13  106.34572146

 12- 5-13  108.12296896

 NUCLEAR CHARGE:                   33
 NUMBER OF PRIMITIVE AOS:          87
 NUMBER OF SYMMETRY AOS:           87
 NUMBER OF CONTRACTIONS:           29   (  29A   )
 NUMBER OF CORE ORBITALS:           4   (   4A   )
 NUMBER OF VALENCE ORBITALS:       25   (  25A   )


 NUCLEAR REPULSION ENERGY  124.92676597


 Eigenvalues of metric

         1 0.210E+00 0.225E+00 0.225E+00 0.315E+00 0.353E+00 0.353E+00 0.362E+00 0.372E+00


 Contracted 2-electron integrals neglected if value below      1.0D-11
 AO integral compression algorithm  1   Integral accuracy      1.0D-11

     0.786 MB (compressed) written to integral file (100.0%)


 NUMBER OF SORTED TWO-ELECTRON INTEGRALS:      94830.     BUFFER LENGTH:  32768
 NUMBER OF SEGMENTS:   1  SEGMENT LENGTH:      94830      RECORD LENGTH: 524288

 Memory used in sort:       0.65 MW

 SORT1 READ      108770. AND WROTE       91348. INTEGRALS IN      1 RECORDS. CPU TIME:     0.01 SEC, REAL TIME:     0.01 SEC
 SORT2 READ       91348. AND WROTE       94830. INTEGRALS IN      3 RECORDS. CPU TIME:     0.01 SEC, REAL TIME:     0.01 SEC

 FILE SIZES:   FILE 1:    31.0 MBYTE,  FILE 4:     4.2 MBYTE,   TOTAL:     35.2 MBYTE

 OPERATOR DM      FOR CENTER  0  COORDINATES:    0.000000    0.000000    0.000000


 **********************************************************************************************************************************
 DATASETS  * FILE   NREC   LENGTH (MB)   RECORD NAMES
              1      19       30.62       500      610      700      900      950      970     1000      129      960     1100   
                                          VAR    BASINP    GEOM    SYMINP    ZMAT    AOBASIS   BASIS     P2S    ABASIS      S 
                                         1400     1410     1200     1210     1080     1600     1650     1300     1700   
                                           T        V       H0       H01     AOSYM     SMH    MOLCAS    ERIS     OPER   

 PROGRAMS   *        TOTAL       INT
 CPU TIMES  *         0.62      0.48
 REAL TIME  *         0.96 SEC
 DISK USED  *        35.68 MB      
 **********************************************************************************************************************************

 Density functional group HFS=DIRAC
 Functional: DIRAC(Automatically generated (new) DIRAC)                        Gradient terms: 0
 Use grid at  1800.2

 Functional: DIRAC                     Factor:  1.0000

 Generated new metagrid on record  1800.2 with target accuracy 1.0D-06 and 45406 points in CPU time    1.4
 Computed new grid on record 1800.1 in CPU time    1.5
   16410 words reserved for DFT integration

 PROGRAM * UKS-SCF (Unrestricted Kohn-Sham)     Authors: W. Meyer, H.-J. Werner, P.J. Knowles, 1993

 NUMBER OF ELECTRONS:      17+   16-    SPACE SYMMETRY=1    SPIN SYMMETRY: Doublet 
 CONVERGENCE THRESHOLDS:    1.00E-05 (Density)    1.00E-06 (Energy)
 MAX. NUMBER OF ITERATIONS:       60
 INTERPOLATION TYPE:            DIIS
 INTERPOLATION STEPS:              2 (START)      1 (STEP)
 LEVEL SHIFTS:                 -0.20 (ALPHA)  -0.20 (BETA) 



 Use fine grid record 1800.2 for energy threshold  1.0D-06
 Orbital guess generated from atomic densities. Full valence occupancy:   17

 Molecular orbital dump at record        2200.2

 Initial alpha occupation  17
 Initial beta  occupation  16

 ITERATION    DDIFF          GRAD             ENERGY        2-EL.EN.            DIPOLE MOMENTS         DIIS
    1      0.000D+00      0.000D+00      -152.03778502    413.937359    0.21838    0.44161   -0.00000    0
    2      0.669D-01      0.224D-01      -152.32052973    399.139014    0.03044    0.06164   -0.00000    1
    3      0.129D-01      0.545D-02      -152.33673061    401.713191    0.04954    0.10027   -0.00000    2
    4      0.170D-02      0.877D-03      -152.33769502    401.685720    0.04749    0.09612   -0.00000    3
    5      0.871D-03      0.500D-03      -152.33796471    401.688365    0.04470    0.09048   -0.00000    4
    6      0.353D-03      0.117D-03      -152.33798947    401.681245    0.04412    0.08930   -0.00000    5
    7      0.458D-04      0.174D-04      -152.33798986    401.681004    0.04408    0.08923   -0.00000    6
    8      0.643D-05      0.275D-05      -152.33798987    401.681004    0.04408    0.08922   -0.00000    5
    9      0.934D-06      0.518D-06      -152.33798987    401.680973    0.04408    0.08922   -0.00000    5

 Final alpha occupancy:  17
 Final beta  occupancy:  16

 !UKS STATE 1.1 Energy               -152.337989867354
 Nuclear energy                       124.92676597
 One-electron energy                 -456.59204254
 Two-electron energy                  200.84048654
 Density functional                   -21.51319984     DIRAC=-21.51319984
 Virial quotient                       -0.99452234
 !UKS STATE 1.1 Dipole moment           0.04407878     0.08921737    -0.00000000
 Dipole moment /Debye                   0.11202974     0.22675308    -0.00000000

 Orbital energies for positive spin:

         1.1          2.1          3.1          4.1          5.1          6.1          7.1          8.1          9.1         10.1
     -9.488492    -9.488389    -9.488386    -9.476004    -0.612624    -0.513022    -0.513013    -0.369508    -0.287835    -0.285319

        11.1         12.1         13.1         14.1         15.1         16.1         17.1         18.1         19.1
     -0.285318    -0.232791    -0.232758    -0.213492    -0.186921    -0.186918     0.005734     0.407063     0.407074

 Orbital energies for negative spin:

         1.1          2.1          3.1          4.1          5.1          6.1          7.1          8.1          9.1         10.1
     -9.489743    -9.489739    -9.489738    -9.456622    -0.593423    -0.509398    -0.509391    -0.349154    -0.279395    -0.279392

        11.1         12.1         13.1         14.1         15.1         16.1         17.1         18.1         19.1
     -0.271591    -0.228245    -0.228212    -0.212806    -0.176705    -0.176697     0.103935     0.414147     0.414155

 HOMO     17.1     0.005734 =       0.1560eV
 LUMO    -17.1     0.103935 =       2.8282eV
 LUMO-HOMO         0.098201 =       2.6722eV

 EXPECTATION VALUE OF S**2:             0.75463160

 Occupation number threshold for canonical orbitals:  1.999000 (occupied),  0.001000 (virtual)

 Number of pseudo-canonical orbitals per symmetry:   16
 Number of active natural orbitals per symmetry:      1

 Natural orbitals saved to record    2200.2 (Orbital set 3)

 Orbital spaces for UNO-CAS (Min. occupation: 0.020  Max. occupation: 1.980):

 Closed:       16
 Active:        1


 **********************************************************************************************************************************
 DATASETS  * FILE   NREC   LENGTH (MB)   RECORD NAMES
              1      20       32.07       500      610      700      900      950      970     1000      129      960     1100   
                                          VAR    BASINP    GEOM    SYMINP    ZMAT    AOBASIS   BASIS     P2S    ABASIS      S 
                                         1400     1410     1200     1210     1080     1600     1650     1300     1700     1800   
                                           T        V       H0       H01     AOSYM     SMH    MOLCAS    ERIS     OPER     GRID   

              2       5        3.00       700     1000      520     1800     2200   
                                         GEOM     BASIS   MCVARS    GRID      UKS  

 PROGRAMS   *        TOTAL       UKS       INT
 CPU TIMES  *         3.68      3.05      0.48
 REAL TIME  *         4.14 SEC
 DISK USED  *        35.68 MB      
 **********************************************************************************************************************************


 PROGRAM * Intrinsic Basis Bonding Analysis (IBBA)          Author: G. Knizia

 Molecular orbitals read from record     2200.2  Type=UKS/ALPHA (state 1.1)
 Fock matrix read from record            2200.2  Type=UKS/TOTAL (state 1.1)
 Orbital energies read from record       2200.2  Type=UKS/ALPHA (state 1.1)
 Density matrix read from record         2200.2  Type=UKS/CHARGE (state 1.1)

 Number of core orbitals:           4 (   4 )
 Number of closed-shell orbitals:  12 (  12 )
 Number of active  orbitals:        1 (   1 )

 Basis set MINAO-AUTO-PP generated.      Number of basis functions:   29 

 Polarized AO type:                A = (O Ot + (1-O)(1-Ot)) P12
 Orthogonalization method:         Symmetric (Loewdin)
 Localization functional:          L = sum[A,i] <i|n_A|i>^4 -> max

 Localization group 1:  16 orbitals, occupancy  2.000
 Iterative localization: IB/PM,    8 iter; Final gradient 0.11E-08

 Bond order analysis:       [THRPRINT= 0.020]

   CEN ATOM   CEN ATOM     WIBERG.BO      RENORM.BO
     1   H  -   2   C       0.890799       0.996849
     1   H  -   3   C       0.047851       0.177363

     2   C  -   3   C       1.114012       1.308366
     2   C  -   7   H       0.947735       0.989135
     2   C  -   6   H       0.947735       0.989135
     2   C  -   1   H       0.890799       0.996849

     3   C  -   2   C       1.114012       1.308366
     3   C  -   5   C       1.113997       1.308329
     3   C  -   4   C       1.113997       1.308329
     3   C  -   1   H       0.047851       0.177363
     3   C  -  11   H       0.047818       0.177237
     3   C  -   8   H       0.047818       0.177237

     4   C  -   3   C       1.113997       1.308329
     4   C  -   9   H       0.947786       0.989127
     4   C  -  10   H       0.947660       0.989147
     4   C  -   8   H       0.890836       0.996845

     5   C  -   3   C       1.113997       1.308329
     5   C  -  12   H       0.947786       0.989127
     5   C  -  13   H       0.947660       0.989147
     5   C  -  11   H       0.890836       0.996845

     6   H  -   2   C       0.947735       0.989135

     7   H  -   2   C       0.947735       0.989135

     8   H  -   4   C       0.890836       0.996845
     8   H  -   3   C       0.047818       0.177237

     9   H  -   4   C       0.947786       0.989127

    10   H  -   4   C       0.947660       0.989147

    11   H  -   5   C       0.890836       0.996845
    11   H  -   3   C       0.047818       0.177237

    12   H  -   5   C       0.947786       0.989127

    13   H  -   5   C       0.947660       0.989147


 Valency analysis:

   CEN ATOM   TOT.VALENCE
     1   H       0.964196
     2   C       3.936131
     3   C       3.545938
     4   C       3.936128
     5   C       3.936128
     6   H       0.977681
     7   H       0.977681
     8   H       0.964201
     9   H       0.977694
    10   H       0.977666
    11   H       0.964201
    12   H       0.977694
    13   H       0.977666
 Localization group 2:   1 orbitals, occupancy  1.000
 Iterative localization: IB/PM,    1 iter; Final gradient 0.00E+00

 Bond order analysis:       [THRPRINT= 0.020]

   CEN ATOM   CEN ATOM     WIBERG.BO      RENORM.BO
     1   H  -   3   C       0.076972       0.500000


     3   C  -   1   H       0.076972       0.500000
     3   C  -  11   H       0.076965       0.500000
     3   C  -   8   H       0.076965       0.500000





     8   H  -   3   C       0.076965       0.500000



    11   H  -   3   C       0.076965       0.500000




 Valency analysis:

   CEN ATOM   TOT.VALENCE
     1   H       0.096303
     2   C       0.018285
     3   C       0.366121
     4   C       0.018259
     5   C       0.018259
     6   H       0.020266
     7   H       0.020266
     8   H       0.096295
     9   H       0.020192
    10   H       0.020366
    11   H       0.096295
    12   H       0.020192
    13   H       0.020366

 Total charge composition:

   CEN ATOM         s          p       ELECTRONS ->P.CHARGE
     1   H       0.86150                 0.86150    0.13850
     2   C       2.97661    3.38971      6.36633   -0.36633
     3   C       3.00693    3.14449      6.15142   -0.15142
     4   C       2.97660    3.38972      6.36633   -0.36633
     5   C       2.97660    3.38972      6.36633   -0.36633
     6   H       0.86084                 0.86084    0.13916
     7   H       0.86084                 0.86084    0.13916
     8   H       0.86151                 0.86151    0.13849
     9   H       0.86085                 0.86085    0.13915
    10   H       0.86084                 0.86084    0.13916
    11   H       0.86151                 0.86151    0.13849
    12   H       0.86085                 0.86085    0.13915
    13   H       0.86084                 0.86084    0.13916

 Total charge composition, AO contributions:

   CEN ATOM SHL      SPHERICAL COMPONENTS
     1   H  1s       0.86150

     2   C  1s       1.99282
     2   C  2s       0.98379
     2   C  2p       1.08995    1.12218    1.17758

     3   C  1s       1.99396
     3   C  2s       1.01297
     3   C  2p       1.04241    1.06789    1.03419

     4   C  1s       1.99282
     4   C  2s       0.98378
     4   C  2p       1.14259    1.15869    1.08844

     5   C  1s       1.99282
     5   C  2s       0.98378
     5   C  2p       1.14259    1.15869    1.08844

     6   H  1s       0.86084

     7   H  1s       0.86084

     8   H  1s       0.86151

     9   H  1s       0.86085

    10   H  1s       0.86084

    11   H  1s       0.86151

    12   H  1s       0.86085

    13   H  1s       0.86084

 Active orbital charges:

   CEN ATOM         s          p       ELECTRONS ->SPIN.DEN
     1   H       0.05072                 0.05072    0.05072
     2   C       0.00017    0.00906      0.00923    0.00923
     3   C       0.01140    0.74732      0.75873    0.75873
     4   C       0.00017    0.00905      0.00921    0.00921
     5   C       0.00017    0.00905      0.00921    0.00921
     6   H       0.01024                 0.01024    0.01024
     7   H       0.01024                 0.01024    0.01024
     8   H       0.05072                 0.05072    0.05072
     9   H       0.01020                 0.01020    0.01020
    10   H       0.01029                 0.01029    0.01029
    11   H       0.05072                 0.05072    0.05072
    12   H       0.01020                 0.01020    0.01020
    13   H       0.01029                 0.01029    0.01029

 Active orbital charges, AO contributions:

   CEN ATOM SHL      SPHERICAL COMPONENTS
     1   H  1s       0.05072

     2   C  1s       0.00000
     2   C  2s       0.00017
     2   C  2p       0.00030    0.00876    0.00000

     3   C  1s       0.00001
     3   C  2s       0.01139
     3   C  2p       0.14625    0.60107    0.00000

     4   C  1s       0.00000
     4   C  2s       0.00017
     4   C  2p       0.00271    0.00583    0.00050

     5   C  1s       0.00000
     5   C  2s       0.00017
     5   C  2p       0.00271    0.00583    0.00050

     6   H  1s       0.01024

     7   H  1s       0.01024

     8   H  1s       0.05072

     9   H  1s       0.01020

    10   H  1s       0.01029

    11   H  1s       0.05072

    12   H  1s       0.01020

    13   H  1s       0.01029

 Summary of localized orbital composition:   [THRPRINT= 0.020]

   ORB  GRP  ORB.ENERGY      CENTERS/CHARGES
     1   1    -9.382252      C  2   2.000
     2   1    -9.382248      C  4   2.000
     3   1    -9.382248      C  5   2.000
     4   1    -9.371198      C  3   2.000
     5   1    -0.412034      C  3   1.013   C  5   0.973
     6   1    -0.412034      C  3   1.013   C  4   0.973
     7   1    -0.412012      C  3   1.013   C  2   0.973
     8   1    -0.341539      C  2   1.110   H  1   0.803   C  3   0.080
     9   1    -0.341534      C  4   1.110   H  8   0.803   C  3   0.080
    10   1    -0.341534      C  5   1.110   H 11   0.803   C  3   0.080
    11   1    -0.336346      C  2   1.133   H  6   0.843   (other: 0.024)
    12   1    -0.336346      C  2   1.133   H  7   0.843   (other: 0.024)
    13   1    -0.336342      C  4   1.133   H  9   0.843   (other: 0.024)
    14   1    -0.336342      C  5   1.133   H 12   0.843   (other: 0.024)
    15   1    -0.336324      C  4   1.133   H 10   0.843   (other: 0.024)
    16   1    -0.336324      C  5   1.133   H 13   0.843   (other: 0.024)
    17   2     0.053848      C  3   0.759   H  1   0.051   H 11   0.051   H  8   0.051   (other: 0.089)

 Localized orbitals saved to record      2200.2  (orbital set 4)


 **********************************************************************************************************************************
 DATASETS  * FILE   NREC   LENGTH (MB)   RECORD NAMES
              1      20       32.07       500      610      700      900      950      970     1000      129      960     1100   
                                          VAR    BASINP    GEOM    SYMINP    ZMAT    AOBASIS   BASIS     P2S    ABASIS      S 
                                         1400     1410     1200     1210     1080     1600     1650     1300     1700     1800   
                                           T        V       H0       H01     AOSYM     SMH    MOLCAS    ERIS     OPER     GRID   

              2       5        3.01       700     1000      520     1800     2200   
                                         GEOM     BASIS   MCVARS    GRID      UKS  

 PROGRAMS   *        TOTAL      IBBA       UKS       INT
 CPU TIMES  *         3.70      0.02      3.05      0.48
 REAL TIME  *         4.27 SEC
 DISK USED  *        35.68 MB      
 **********************************************************************************************************************************
 Molecular orbitals read from record     2200.2  Type=UKS/LOCAL(IBO)  
 Occupation numbers read from record     2200.2  Type=UKS/LOCAL(IBO)  
 Orbital energies read from record       2200.2  Type=UKS/LOCAL(IBO)  
 Redundancy group numbers read from rec  2200.2  Type=UKS/BETA (state 1.1)

 IBBA/STO-3G energy=      0.000000000000

        UKS-SCF 
   -152.33798987
 **********************************************************************************************************************************
 Molpro calculation terminated
