
 Primary working directories    : /local
 Secondary working directories  : /local
 Wavefunction directory         : /local/
 Main file repository           : /local/

 SHA1      : b4a5b34a9e711420743f49e6833241d17c61fb3c
 NAME      : 2099.9.b4a5b34
 ARCHNAME  : linux/x86_64_openmp
 FC        : /cm/shared/languages/GCC-6.1/bin/gfortran
 BLASLIB   : -lblas
 id        : simonbennie

 Nodes     nprocs
 node32-006    1

 Using customized tuning parameters: mindgm=1; mindgv=20; mindgc=4; mindgr=1; noblas=0; minvec=7
 default implementation of scratch files=df  

 memory,500,m
 geomtyp=xyz
 nosym
 noorient
 geometry={
 C         -1.53233        0.02247        0.00000
 C         -0.00192        0.01421        0.00000
 O          0.37239        1.40356        0.00000
 H          1.34248        1.44036        0.00000
 H         -1.92991       -0.99819        0.00000
 H         -1.90797        0.54382       -0.88653
 H         -1.90797        0.54382        0.88653
 C          0.54303       -0.66466       -1.26580
 C          0.54303       -0.66466        1.26580
 H          0.17836       -0.14752       -2.15943
 H          0.17836       -0.14752        2.15943
 H          0.23752       -1.71600       -1.32280
 H          0.23752       -1.71600        1.32280
 H          1.64084       -0.63767       -1.28032
 H          1.64084       -0.63767        1.28032
 }
 basis={ default,SV(P) }
 {uks,S-VWN,direct;wf,42,1,0}
 {ibba,bonds=1}

 Variables initialized (895), CPU time= 0.00 sec
 Commands  initialized (725), CPU time= 0.02 sec, 591 directives.
 Default parameters read. Elapsed time= 0.09 sec

 Checking input...
 Passed
1


                                         ***  PROGRAM SYSTEM MOLPRO  ***
                                       Copyright, TTI GmbH Stuttgart, 2015
                                    Version 2099.9 linked May 26 2017 16:03:21


 **********************************************************************************************************************************
 LABEL *                                                                                 
  64 bit serial version                                                                  DATE: 12-Jun-17          TIME: 20:31:46  
 **********************************************************************************************************************************

 SHA1:             b4a5b34a9e711420743f49e6833241d17c61fb3c
 **********************************************************************************************************************************
 SETTING GEOMTYP        =    XYZ

 Variable memory set to  500000000 words,  buffer space 

 ZSYMEL=NOSYM

 SETTING BASIS          =    SV(P)


 Recomputing integrals since basis changed


 Using spherical harmonics

 Library entry C      S def2-SV(P)           selected for orbital group  1
 Library entry C      P def2-SV(P)           selected for orbital group  1
 Library entry C      D def2-SV(P)           selected for orbital group  1
 Library entry O      S def2-SV(P)           selected for orbital group  2
 Library entry O      P def2-SV(P)           selected for orbital group  2
 Library entry O      D def2-SV(P)           selected for orbital group  2
 Library entry H      S def2-SV(P)           selected for orbital group  3


 PROGRAM * SEWARD (Integral evaluation for generally contracted gaussian basis sets)     Author: Roland Lindh, 1990

 Geometry written to block  1 of record 700


 Point group  C1  



 ATOMIC COORDINATES

 NR  ATOM    CHARGE       X              Y              Z

   1  C       6.00   -2.895684032    0.042462146    0.000000000
   2  C       6.00   -0.003628274    0.026853008    0.000000000
   3  O       8.00    0.703715112    2.652343999    0.000000000
   4  H       1.00    2.536919528    2.721885921    0.000000000
   5  H       1.00   -3.647001345   -1.886305720    0.000000000
   6  H       1.00   -3.605540754    1.027670861   -1.675298901
   7  H       1.00   -3.605540754    1.027670861    1.675298901
   8  C       6.00    1.026177977   -1.256025366   -2.392015328
   9  C       6.00    1.026177977   -1.256025366    2.392015328
  10  H       1.00    0.337051552   -0.278772398   -4.080731285
  11  H       1.00    0.337051552   -0.278772398    4.080731285
  12  H       1.00    0.448847749   -3.242770030   -2.499729718
  13  H       1.00    0.448847749   -3.242770030    2.499729718
  14  H       1.00    3.100738214   -1.205021658   -2.419454152
  15  H       1.00    3.100738214   -1.205021658    2.419454152

 Bond lengths in Bohr (Angstrom)

 1-2  2.892097881  1-5  2.069933136  1-6  2.069096224  1-7  2.069096224  2-3  2.719106031
     ( 1.530432290)     ( 1.095361444)     ( 1.094918569)     ( 1.094918569)     ( 1.438888946)

  2- 8  2.903104402   2- 9  2.903104402   3- 4  1.834522965   8-10  2.069222119   8-12  2.071730422
       ( 1.536256691)       ( 1.536256691)       ( 0.970787746)       ( 1.094985190)       ( 1.096312526)

  8-14  2.075368508   9-11  2.069222119   9-13  2.071730422   9-15  2.075368508
       ( 1.098237719)       ( 1.094985190)       ( 1.096312526)       ( 1.098237719)

 Bond angles

  1-2-3  104.76902697   1-2-8  110.92255387   1-2-9  110.92255387   2-1-5  110.97328220

  2- 1- 6  110.22090701   2- 1- 7  110.22090701   2- 3- 4  107.25071562   2- 8-10  110.21836376

  2- 8-12  111.57747468   2- 8-14  110.77023896   2- 9-11  110.21836376   2- 9-13  111.57747468

  2- 9-15  110.77023896   3- 2- 8  109.53648747   3- 2- 9  109.53648747   5- 1- 6  108.61190457

  5- 1- 7  108.61190457   6- 1- 7  108.12870271   8- 2- 9  110.96453384  10- 8-12  108.52192632

 10- 8-14  108.08997829  11- 9-13  108.52192632  11- 9-15  108.08997829  12- 8-14  107.54424578

 13- 9-15  107.54424578

 NUCLEAR CHARGE:                   42
 NUMBER OF PRIMITIVE AOS:         165
 NUMBER OF SYMMETRY AOS:          160
 NUMBER OF CONTRACTIONS:           90   (  90A   )
 NUMBER OF CORE ORBITALS:           5   (   5A   )
 NUMBER OF VALENCE ORBITALS:       30   (  30A   )


 NUCLEAR REPULSION ENERGY  198.77359127


 Eigenvalues of metric

         1 0.179E-02 0.600E-02 0.603E-02 0.144E-01 0.286E-01 0.297E-01 0.300E-01 0.361E-01


 Contracted 2-electron integrals neglected if value below      1.0D-11
 AO integral compression algorithm  1   Integral accuracy      1.0D-11

     37.487 MB (compressed) written to integral file ( 49.6%)


 NUMBER OF SORTED TWO-ELECTRON INTEGRALS:    8386560.     BUFFER LENGTH:  32768
 NUMBER OF SEGMENTS:   1  SEGMENT LENGTH:    8386560      RECORD LENGTH: 524288

 Memory used in sort:       8.94 MW

 SORT1 READ     9478508. AND WROTE     7931434. INTEGRALS IN     23 RECORDS. CPU TIME:     0.12 SEC, REAL TIME:     0.22 SEC
 SORT2 READ     7931434. AND WROTE     8386560. INTEGRALS IN    143 RECORDS. CPU TIME:     0.25 SEC, REAL TIME:     0.31 SEC

 FILE SIZES:   FILE 1:    68.0 MBYTE,  FILE 4:    96.5 MBYTE,   TOTAL:    164.5 MBYTE

 OPERATOR DM      FOR CENTER  0  COORDINATES:    0.000000    0.000000    0.000000


 **********************************************************************************************************************************
 DATASETS  * FILE   NREC   LENGTH (MB)   RECORD NAMES
              1      19       63.39       500      610      700      900      950      970     1000      129      960     1100   
                                          VAR    BASINP    GEOM    SYMINP    ZMAT    AOBASIS   BASIS     P2S    ABASIS      S 
                                         1400     1410     1200     1210     1080     1600     1650     1300     1700   
                                           T        V       H0       H01     AOSYM     SMH    MOLCAS    ERIS     OPER   

 PROGRAMS   *        TOTAL       INT
 CPU TIMES  *         1.87      1.73
 REAL TIME  *         2.55 SEC
 DISK USED  *       165.03 MB      
 **********************************************************************************************************************************

 Density functional group S-VWN=DIRAC+VWN5
 Functional: DIRAC(Automatically generated (new) DIRAC)                        Gradient terms: 0
 Functional: VWN5(Automatically generated (new) VWN5)                          Gradient terms: 0
 Use grid at  1800.2

 Functional: DIRAC                     Factor:  1.0000
 Functional: VWN5                      Factor:  1.0000

 Generated new metagrid on record  1800.2 with target accuracy 1.0D-06 and 53396 points in CPU time    1.7
 Computed new grid on record 1800.1 in CPU time    1.9
   41619 words reserved for DFT integration

 PROGRAM * UKS-SCF (Unrestricted Kohn-Sham)     Authors: W. Meyer, H.-J. Werner, P.J. Knowles, 1993

 NUMBER OF ELECTRONS:      21+   21-    SPACE SYMMETRY=1    SPIN SYMMETRY: Singlet 
 CONVERGENCE THRESHOLDS:    1.00E-05 (Density)    1.00E-06 (Energy)
 MAX. NUMBER OF ITERATIONS:       60
 INTERPOLATION TYPE:            DIIS
 INTERPOLATION STEPS:              2 (START)      1 (STEP)
 LEVEL SHIFTS:                 -0.20 (ALPHA)  -0.20 (BETA) 



 Use fine grid record 1800.2 for energy threshold  1.0D-06
 Orbital guess generated from atomic densities. Full valence occupancy:   21

 Molecular orbital dump at record        2200.2

 Initial alpha occupation  21
 Initial beta  occupation  21

 ITERATION    DDIFF          GRAD             ENERGY        2-EL.EN.            DIPOLE MOMENTS         DIIS
    1      0.000D+00      0.000D+00      -231.09553462    640.285709    0.76268   -0.83445    0.00000    0
    2      0.213D-01      0.879D-02      -231.34674990    613.762313    0.28628   -0.40703    0.00000    1
    3      0.729D-02      0.478D-02      -231.42435921    621.922564    0.42420   -0.52326    0.00000    2
    4      0.142D-02      0.574D-03      -231.42569028    621.617577    0.40878   -0.45577    0.00000    3
    5      0.102D-02      0.272D-03      -231.42613638    621.536673    0.40441   -0.45548    0.00000    4
    6      0.599D-03      0.644D-04      -231.42619316    621.509656    0.40186   -0.44617    0.00000    5
    7      0.118D-03      0.220D-04      -231.42619633    621.489779    0.40041   -0.44613    0.00000    6
    8      0.504D-04      0.125D-04      -231.42619720    621.499755    0.40039   -0.44687    0.00000    7
    9      0.143D-04      0.165D-05      -231.42619723    621.498097    0.40033   -0.44653    0.00000    6
   10      0.337D-05      0.403D-06      -231.42619723    621.498658    0.40029   -0.44663    0.00000    7
   11      0.547D-06      0.133D-06      -231.42619723    621.498377    0.40029   -0.44661    0.00000    6

 Final alpha occupancy:  21
 Final beta  occupancy:  21

 !UKS STATE 1.1 Energy               -231.426197233237
 Nuclear energy                       198.77359127
 One-electron energy                 -709.07284919
 Two-electron energy                  310.74918840
 Density functional                   -31.87612772     DIRAC=-29.22498570 VWN5= -2.65114202
 Virial quotient                       -1.00479401
 !UKS STATE 1.1 Dipole moment           0.40028988    -0.44661297     0.00000000
 Dipole moment /Debye                   1.01736876    -1.13510260     0.00000000

 Orbital energies for positive spin:

         1.1          2.1          3.1          4.1          5.1          6.1          7.1          8.1          9.1         10.1
    -18.586959    -9.838466    -9.766127    -9.766086    -9.760015    -0.906271    -0.700715    -0.612523    -0.611568    -0.506840

        11.1         12.1         13.1         14.1         15.1         16.1         17.1         18.1         19.1         20.1
     -0.436767    -0.402372    -0.400757    -0.362299    -0.350882    -0.333384    -0.319848    -0.307831    -0.302789    -0.271691

        21.1         22.1         23.1
     -0.215305     0.012697     0.062150

 Orbital energies for negative spin:

         1.1          2.1          3.1          4.1          5.1          6.1          7.1          8.1          9.1         10.1
    -18.586959    -9.838466    -9.766127    -9.766086    -9.760015    -0.906271    -0.700715    -0.612523    -0.611568    -0.506840

        11.1         12.1         13.1         14.1         15.1         16.1         17.1         18.1         19.1         20.1
     -0.436767    -0.402372    -0.400757    -0.362299    -0.350882    -0.333384    -0.319848    -0.307831    -0.302789    -0.271691

        21.1         22.1         23.1
     -0.215305     0.012697     0.062150

 HOMO     21.1    -0.215305 =      -5.8588eV
 LUMO     22.1     0.012697 =       0.3455eV
 LUMO-HOMO         0.228002 =       6.2042eV

 EXPECTATION VALUE OF S**2:            -0.00000000

 Natural orbitals saved to record    2200.2 (Orbital set 3)

 Orbital spaces for UNO-CAS (Min. occupation: 0.020  Max. occupation: 1.980):

 Closed:       21
 Active:        0


 **********************************************************************************************************************************
 DATASETS  * FILE   NREC   LENGTH (MB)   RECORD NAMES
              1      20       65.10       500      610      700      900      950      970     1000      129      960     1100   
                                          VAR    BASINP    GEOM    SYMINP    ZMAT    AOBASIS   BASIS     P2S    ABASIS      S 
                                         1400     1410     1200     1210     1080     1600     1650     1300     1700     1800   
                                           T        V       H0       H01     AOSYM     SMH    MOLCAS    ERIS     OPER     GRID   

              2       5        3.34       700     1000      520     1800     2200   
                                         GEOM     BASIS   MCVARS    GRID      UKS  

 PROGRAMS   *        TOTAL       UKS       INT
 CPU TIMES  *        12.04     10.17      1.73
 REAL TIME  *        13.48 SEC
 DISK USED  *       165.03 MB      
 **********************************************************************************************************************************


 PROGRAM * Intrinsic Basis Bonding Analysis (IBBA)          Author: G. Knizia

 Molecular orbitals read from record     2200.2  Type=UKS/ALPHA (state 1.1)
 Fock matrix read from record            2200.2  Type=UKS/TOTAL (state 1.1)
 Orbital energies read from record       2200.2  Type=UKS/ALPHA (state 1.1)
 Density matrix read from record         2200.2  Type=UKS/CHARGE (state 1.1)

 Number of core orbitals:           5 (   5 )
 Number of closed-shell orbitals:  16 (  16 )

 Basis set MINAO-AUTO-PP generated.      Number of basis functions:   35 

 Polarized AO type:                A = (O Ot + (1-O)(1-Ot)) P12
 Orthogonalization method:         Symmetric (Loewdin)
 Localization functional:          L = sum[A,i] <i|n_A|i>^4 -> max

 Localization group 1:  21 orbitals, occupancy  2.000
 Iterative localization: IB/PM,    7 iter; Final gradient 0.45E-08

 Bond order analysis:       [THRPRINT= 0.020]

   CEN ATOM   CEN ATOM     WIBERG.BO      RENORM.BO
     1   C  -   2   C       0.993221       0.990689
     1   C  -   5   H       0.959267       0.985786
     1   C  -   6   H       0.954234       0.979860
     1   C  -   7   H       0.954234       0.979860

     2   C  -   1   C       0.993221       0.990689
     2   C  -   9   C       0.992463       0.971253
     2   C  -   8   C       0.992463       0.971253
     2   C  -   3   O       0.946757       0.945382

     3   O  -   2   C       0.946757       0.945382
     3   O  -   4   H       0.874624       0.973342
     3   O  -   8   C       0.031546       0.016291
     3   O  -   9   C       0.031546       0.016291

     4   H  -   3   O       0.874624       0.973342

     5   H  -   1   C       0.959267       0.985786

     6   H  -   1   C       0.954234       0.979860

     7   H  -   1   C       0.954234       0.979860

     8   C  -   2   C       0.992463       0.971253
     8   C  -  14   H       0.958575       0.980491
     8   C  -  10   H       0.954829       0.979555
     8   C  -  12   H       0.954302       0.979479
     8   C  -   3   O       0.031546       0.016291

     9   C  -   2   C       0.992463       0.971253
     9   C  -  15   H       0.958575       0.980491
     9   C  -  11   H       0.954829       0.979555
     9   C  -  13   H       0.954302       0.979479
     9   C  -   3   O       0.031546       0.016291

    10   H  -   8   C       0.954829       0.979555

    11   H  -   9   C       0.954829       0.979555

    12   H  -   8   C       0.954302       0.979479

    13   H  -   9   C       0.954302       0.979479

    14   H  -   8   C       0.958575       0.980491

    15   H  -   9   C       0.958575       0.980491


 Valency analysis:

   CEN ATOM   TOT.VALENCE
     1   C       3.928887
     2   C       3.939701
     3   O       1.960707
     4   H       0.896007
     5   H       0.981277
     6   H       0.978645
     7   H       0.978645
     8   C       3.931588
     9   C       3.931588
    10   H       0.978693
    11   H       0.978693
    12   H       0.980228
    13   H       0.980228
    14   H       0.983066
    15   H       0.983066

 Total charge composition:

   CEN ATOM         s          p       ELECTRONS ->P.CHARGE
     1   C       3.01232    3.40971      6.42202   -0.42202
     2   C       2.91093    2.85456      5.76549    0.23451
     3   O       3.62503    4.89816      8.52319   -0.52319
     4   H       0.67752                 0.67752    0.32248
     5   H       0.86317                 0.86317    0.13683
     6   H       0.85387                 0.85387    0.14613
     7   H       0.85387                 0.85387    0.14613
     8   C       3.01919    3.41796      6.43715   -0.43715
     9   C       3.01919    3.41796      6.43715   -0.43715
    10   H       0.85403                 0.85403    0.14597
    11   H       0.85403                 0.85403    0.14597
    12   H       0.85939                 0.85939    0.14061
    13   H       0.85939                 0.85939    0.14061
    14   H       0.86987                 0.86987    0.13013
    15   H       0.86987                 0.86987    0.13013

 Total charge composition, AO contributions:

   CEN ATOM SHL      SPHERICAL COMPONENTS
     1   C  1s       1.99214
     1   C  2s       1.02017
     1   C  2p       1.05257    1.17210    1.18504

     2   C  1s       1.99364
     2   C  2s       0.91728
     2   C  2p       1.02134    0.81264    1.02058

     3   O  1s       1.99739
     3   O  2s       1.62764
     3   O  2p       1.46386    1.48442    1.94988

     4   H  1s       0.67752

     5   H  1s       0.86317

     6   H  1s       0.85387

     7   H  1s       0.85387

     8   C  1s       1.99224
     8   C  2s       1.02695
     8   C  2p       1.15378    1.15618    1.10800

     9   C  1s       1.99224
     9   C  2s       1.02695
     9   C  2p       1.15378    1.15618    1.10800

    10   H  1s       0.85403

    11   H  1s       0.85403

    12   H  1s       0.85939

    13   H  1s       0.85939

    14   H  1s       0.86987

    15   H  1s       0.86987

 Summary of localized orbital composition:   [THRPRINT= 0.020]

   ORB  GRP  ORB.ENERGY      CENTERS/CHARGES
     1   1   -18.448217      O  3   2.000
     2   1    -9.751945      C  2   2.000
     3   1    -9.658631      C  8   2.000
     4   1    -9.658631      C  9   2.000
     5   1    -9.651778      C  1   2.000
     6   1    -0.691788      O  3   1.326   H  4   0.665
     7   1    -0.655521      O  3   1.264   C  2   0.717
     8   1    -0.515788      C  9   1.008   C  2   0.975
     9   1    -0.515788      C  8   1.008   C  2   0.975
    10   1    -0.514525      C  1   0.989   C  2   0.984   (other: 0.027)
    11   1    -0.462587      O  3   1.979   (other: 0.021)
    12   1    -0.448352      C  8   1.125   H 14   0.861
    13   1    -0.448352      C  9   1.125   H 15   0.861
    14   1    -0.448153      C  9   1.136   H 13   0.848
    15   1    -0.448153      C  8   1.136   H 12   0.848
    16   1    -0.443370      C  1   1.130   H  5   0.855
    17   1    -0.441978      C  9   1.144   H 11   0.844
    18   1    -0.441978      C  8   1.144   H 10   0.844
    19   1    -0.436471      C  1   1.143   H  6   0.844
    20   1    -0.436471      C  1   1.143   H  7   0.844
    21   1    -0.241071      O  3   1.950   (other: 0.050)

 Localized orbitals saved to record      2200.2  (orbital set 4)


 **********************************************************************************************************************************
 DATASETS  * FILE   NREC   LENGTH (MB)   RECORD NAMES
              1      20       65.10       500      610      700      900      950      970     1000      129      960     1100   
                                          VAR    BASINP    GEOM    SYMINP    ZMAT    AOBASIS   BASIS     P2S    ABASIS      S 
                                         1400     1410     1200     1210     1080     1600     1650     1300     1700     1800   
                                           T        V       H0       H01     AOSYM     SMH    MOLCAS    ERIS     OPER     GRID   

              2       5        3.40       700     1000      520     1800     2200   
                                         GEOM     BASIS   MCVARS    GRID      UKS  

 PROGRAMS   *        TOTAL      IBBA       UKS       INT
 CPU TIMES  *        12.08      0.04     10.17      1.73
 REAL TIME  *        13.63 SEC
 DISK USED  *       165.03 MB      
 **********************************************************************************************************************************
 Molecular orbitals read from record     2200.2  Type=UKS/LOCAL(IBO)  
 Occupation numbers read from record     2200.2  Type=UKS/LOCAL(IBO)  
 Orbital energies read from record       2200.2  Type=UKS/LOCAL(IBO)  
 Redundancy group numbers read from rec  2200.2  Type=UKS/BETA (state 1.1)

 IBBA/SV(P) energy=      0.000000000000

        UKS-SCF 
   -231.42619723
 **********************************************************************************************************************************
 Molpro calculation terminated
