
 Primary working directories    : /local
 Secondary working directories  : /local
 Wavefunction directory         : /local/
 Main file repository           : /local/

 SHA1      : b4a5b34a9e711420743f49e6833241d17c61fb3c
 NAME      : 2099.9.b4a5b34
 ARCHNAME  : linux/x86_64_openmp
 FC        : /cm/shared/languages/GCC-6.1/bin/gfortran
 BLASLIB   : -lblas
 id        : simonbennie

 Nodes     nprocs
 node34-026    1

 Using customized tuning parameters: mindgm=1; mindgv=20; mindgc=4; mindgr=1; noblas=0; minvec=7
 default implementation of scratch files=df  

 memory,500,m
 geomtyp=xyz
 nosym
 noorient
 geometry={
 C         -1.53233        0.02247        0.00000
 C         -0.00192        0.01421        0.00000
 O          0.37239        1.40356        0.00000
 H          1.34248        1.44036        0.00000
 H         -1.92991       -0.99819        0.00000
 H         -1.90797        0.54382       -0.88653
 H         -1.90797        0.54382        0.88653
 C          0.54303       -0.66466       -1.26580
 C          0.54303       -0.66466        1.26580
 H          0.17836       -0.14752       -2.15943
 H          0.17836       -0.14752        2.15943
 H          0.23752       -1.71600       -1.32280
 H          0.23752       -1.71600        1.32280
 H          1.64084       -0.63767       -1.28032
 H          1.64084       -0.63767        1.28032
 }
 basis={ default,qzvp }
 {uks,LDA,direct;wf,42,1,0}
 {ibba,bonds=1}

 Variables initialized (895), CPU time= 0.01 sec
 Commands  initialized (725), CPU time= 0.01 sec, 591 directives.
 Default parameters read. Elapsed time= 0.16 sec

 Checking input...
 Passed
1


                                         ***  PROGRAM SYSTEM MOLPRO  ***
                                       Copyright, TTI GmbH Stuttgart, 2015
                                    Version 2099.9 linked May 26 2017 16:03:21


 **********************************************************************************************************************************
 LABEL *                                                                                 
  64 bit serial version                                                                  DATE: 12-Jun-17          TIME: 16:53:13  
 **********************************************************************************************************************************

 SHA1:             b4a5b34a9e711420743f49e6833241d17c61fb3c
 **********************************************************************************************************************************
 SETTING GEOMTYP        =    XYZ

 Variable memory set to  500000000 words,  buffer space 

 ZSYMEL=NOSYM

 SETTING BASIS          =    QZVP


 Recomputing integrals since basis changed


 Using spherical harmonics

 Library entry C      S def2-QZVP            selected for orbital group  1
 Library entry C      P def2-QZVP            selected for orbital group  1
 Library entry C      D def2-QZVP            selected for orbital group  1
 Library entry C      F def2-QZVP            selected for orbital group  1
 Library entry C      G def2-QZVP            selected for orbital group  1
 Library entry O      S def2-QZVP            selected for orbital group  2
 Library entry O      P def2-QZVP            selected for orbital group  2
 Library entry O      D def2-QZVP            selected for orbital group  2
 Library entry O      F def2-QZVP            selected for orbital group  2
 Library entry O      G def2-QZVP            selected for orbital group  2
 Library entry H      S def2-QZVP            selected for orbital group  3
 Library entry H      P def2-QZVP            selected for orbital group  3
 Library entry H      D def2-QZVP            selected for orbital group  3
 Library entry H      F def2-QZVP            selected for orbital group  3


 PROGRAM * SEWARD (Integral evaluation for generally contracted gaussian basis sets)     Author: Roland Lindh, 1990

 Geometry written to block  1 of record 700


 Point group  C1  



 ATOMIC COORDINATES

 NR  ATOM    CHARGE       X              Y              Z

   1  C       6.00   -2.895684032    0.042462146    0.000000000
   2  C       6.00   -0.003628274    0.026853008    0.000000000
   3  O       8.00    0.703715112    2.652343999    0.000000000
   4  H       1.00    2.536919528    2.721885921    0.000000000
   5  H       1.00   -3.647001345   -1.886305720    0.000000000
   6  H       1.00   -3.605540754    1.027670861   -1.675298901
   7  H       1.00   -3.605540754    1.027670861    1.675298901
   8  C       6.00    1.026177977   -1.256025366   -2.392015328
   9  C       6.00    1.026177977   -1.256025366    2.392015328
  10  H       1.00    0.337051552   -0.278772398   -4.080731285
  11  H       1.00    0.337051552   -0.278772398    4.080731285
  12  H       1.00    0.448847749   -3.242770030   -2.499729718
  13  H       1.00    0.448847749   -3.242770030    2.499729718
  14  H       1.00    3.100738214   -1.205021658   -2.419454152
  15  H       1.00    3.100738214   -1.205021658    2.419454152

 Bond lengths in Bohr (Angstrom)

 1-2  2.892097881  1-5  2.069933136  1-6  2.069096224  1-7  2.069096224  2-3  2.719106031
     ( 1.530432290)     ( 1.095361444)     ( 1.094918569)     ( 1.094918569)     ( 1.438888946)

  2- 8  2.903104402   2- 9  2.903104402   3- 4  1.834522965   8-10  2.069222119   8-12  2.071730422
       ( 1.536256691)       ( 1.536256691)       ( 0.970787746)       ( 1.094985190)       ( 1.096312526)

  8-14  2.075368508   9-11  2.069222119   9-13  2.071730422   9-15  2.075368508
       ( 1.098237719)       ( 1.094985190)       ( 1.096312526)       ( 1.098237719)

 Bond angles

  1-2-3  104.76902697   1-2-8  110.92255387   1-2-9  110.92255387   2-1-5  110.97328220

  2- 1- 6  110.22090701   2- 1- 7  110.22090701   2- 3- 4  107.25071562   2- 8-10  110.21836376

  2- 8-12  111.57747468   2- 8-14  110.77023896   2- 9-11  110.21836376   2- 9-13  111.57747468

  2- 9-15  110.77023896   3- 2- 8  109.53648747   3- 2- 9  109.53648747   5- 1- 6  108.61190457

  5- 1- 7  108.61190457   6- 1- 7  108.12870271   8- 2- 9  110.96453384  10- 8-12  108.52192632

 10- 8-14  108.08997829  11- 9-13  108.52192632  11- 9-15  108.08997829  12- 8-14  107.54424578

 13- 9-15  107.54424578

 NUCLEAR CHARGE:                   42
 NUMBER OF PRIMITIVE AOS:         840
 NUMBER OF SYMMETRY AOS:          715
 NUMBER OF CONTRACTIONS:          585   ( 585A   )
 NUMBER OF CORE ORBITALS:           5   (   5A   )
 NUMBER OF VALENCE ORBITALS:       30   (  30A   )


 NUCLEAR REPULSION ENERGY  198.77359127


 Eigenvalues of metric

         1 0.447E-04 0.459E-04 0.470E-04 0.743E-04 0.823E-04 0.917E-04 0.943E-04 0.107E-03


 Contracted 2-electron integrals neglected if value below      1.0D-12
 AO integral compression algorithm  1   Integral accuracy      1.0D-12

     40752.906 MB (compressed) written to integral file ( 33.4%)


 NUMBER OF SORTED TWO-ELECTRON INTEGRALS:14689922715.     BUFFER LENGTH:  32768
 NUMBER OF SEGMENTS: 184  SEGMENT LENGTH:   79999773      RECORD LENGTH: 262144

 Memory used in sort:      80.29 MW

 SORT1 READ 15248138275. AND WROTE 10587813328. INTEGRALS IN  60679 RECORDS. CPU TIME:   179.22 SEC, REAL TIME:  1852.17 SEC
 SORT2 READ 10587813328. AND WROTE 14689922715. INTEGRALS IN 155460 RECORDS. CPU TIME:   310.56 SEC, REAL TIME:  2235.79 SEC

 FILE SIZES:   FILE 1: 40795.6 MBYTE,  FILE 4:127253.1 MBYTE,   TOTAL: 168048.8 MBYTE

 OPERATOR DM      FOR CENTER  0  COORDINATES:    0.000000    0.000000    0.000000


 **********************************************************************************************************************************
 DATASETS  * FILE   NREC   LENGTH (MB)   RECORD NAMES
              1      19    37754.71       500      610      700      900      950      970     1000      129      960     1100   
                                          VAR    BASINP    GEOM    SYMINP    ZMAT    AOBASIS   BASIS     P2S    ABASIS      S 
                                         1400     1410     1200     1210     1080     1600     1650     1300     1700   
                                           T        V       H0       H01     AOSYM     SMH    MOLCAS    ERIS     OPER   

 PROGRAMS   *        TOTAL       INT
 CPU TIMES  *      1124.95   1124.81
 REAL TIME  *      4795.18 SEC
 DISK USED  *       168.05 GB      
 **********************************************************************************************************************************

 Density functional group LDA=DIRAC+VWN5
 Functional: DIRAC(Automatically generated (new) DIRAC)                        Gradient terms: 0
 Functional: VWN5(Automatically generated (new) VWN5)                          Gradient terms: 0
 Use grid at  1800.2

 Functional: DIRAC                     Factor:  1.0000
 Functional: VWN5                      Factor:  1.0000

 Generated new metagrid on record  1800.2 with target accuracy 1.0D-06 and 58228 points in CPU time    1.6
 Computed new grid on record 1800.1 in CPU time    1.8
  246259 words reserved for DFT integration

 PROGRAM * UKS-SCF (Unrestricted Kohn-Sham)     Authors: W. Meyer, H.-J. Werner, P.J. Knowles, 1993

 NUMBER OF ELECTRONS:      21+   21-    SPACE SYMMETRY=1    SPIN SYMMETRY: Singlet 
 CONVERGENCE THRESHOLDS:    1.00E-05 (Density)    1.00E-06 (Energy)
 MAX. NUMBER OF ITERATIONS:       60
 INTERPOLATION TYPE:            DIIS
 INTERPOLATION STEPS:              2 (START)      1 (STEP)
 LEVEL SHIFTS:                 -0.20 (ALPHA)  -0.20 (BETA) 



 Use fine grid record 1800.2 for energy threshold  1.0D-06
 Orbital guess generated from atomic densities. Full valence occupancy:   21

 Molecular orbital dump at record        2200.2

 Initial alpha occupation  21
 Initial beta  occupation  21

 ITERATION    DDIFF          GRAD             ENERGY        2-EL.EN.            DIPOLE MOMENTS         DIIS
    1      0.000D+00      0.000D+00      -231.39371653    641.128064    0.71250   -0.81122    0.00000    0
    2      0.168D-02      0.144D-02      -231.65340997    612.721592    0.17301   -0.47850    0.00000    1
    3      0.539D-03      0.863D-03      -231.74340471    621.785499    0.36301   -0.59188    0.00000    2
    4      0.167D-03      0.110D-03      -231.74497173    621.468616    0.34414   -0.52585    0.00000    3
    5      0.152D-03      0.521D-04      -231.74551139    621.406687    0.34232   -0.53582    0.00000    4
    6      0.216D-03      0.153D-04      -231.74564165    621.349984    0.33967   -0.52464    0.00000    5
    7      0.645D-04      0.547D-05      -231.74564966    621.305617    0.33730   -0.52384    0.00000    6
    8      0.300D-04      0.346D-05      -231.74565218    621.321484    0.33720   -0.52433    0.00000    7
    9      0.992D-05      0.390D-06      -231.74565227    621.319322    0.33723   -0.52369    0.00000    7
   10      0.248D-05      0.124D-06      -231.74565228    621.319600    0.33705   -0.52394    0.00000    7
   11      0.560D-06      0.392D-07      -231.74565228    621.319737    0.33709   -0.52388    0.00000    7

 Final alpha occupancy:  21
 Final beta  occupancy:  21

 !UKS STATE 1.1 Energy               -231.745652283163
 Nuclear energy                       198.77359127
 One-electron energy                 -709.34208338
 Two-electron energy                  310.65986873
 Density functional                   -31.83702891     DIRAC=-29.18842246 VWN5= -2.64860644
 Virial quotient                       -1.00792203
 !UKS STATE 1.1 Dipole moment           0.33708620    -0.52388141     0.00000000
 Dipole moment /Debye                   0.85673154    -1.33148652     0.00000000

 Orbital energies for positive spin:

         1.1          2.1          3.1          4.1          5.1          6.1          7.1          8.1          9.1         10.1
    -18.604158    -9.846436    -9.774243    -9.774243    -9.768904    -0.928113    -0.714029    -0.623475    -0.622797    -0.515990

        11.1         12.1         13.1         14.1         15.1         16.1         17.1         18.1         19.1         20.1
     -0.443828    -0.408976    -0.406440    -0.369029    -0.355489    -0.338686    -0.323486    -0.315551    -0.308424    -0.283245

        21.1         22.1         23.1
     -0.232216    -0.016470     0.023149

 Orbital energies for negative spin:

         1.1          2.1          3.1          4.1          5.1          6.1          7.1          8.1          9.1         10.1
    -18.604157    -9.846436    -9.774243    -9.774243    -9.768904    -0.928113    -0.714029    -0.623475    -0.622797    -0.515990

        11.1         12.1         13.1         14.1         15.1         16.1         17.1         18.1         19.1         20.1
     -0.443828    -0.408976    -0.406440    -0.369029    -0.355489    -0.338686    -0.323486    -0.315551    -0.308424    -0.283245

        21.1         22.1         23.1
     -0.232215    -0.016471     0.023149

 HOMO    -21.1    -0.232215 =      -6.3189eV
 LUMO    -22.1    -0.016471 =      -0.4482eV
 LUMO-HOMO         0.215745 =       5.8707eV

 EXPECTATION VALUE OF S**2:             0.00000000

 Occupation number threshold for canonical orbitals:  1.999000 (occupied),  0.001000 (virtual)

 Number of pseudo-canonical orbitals per symmetry:   21
 Number of active natural orbitals per symmetry:      0

 Natural orbitals saved to record    2200.2 (Orbital set 3)

 Orbital spaces for UNO-CAS (Min. occupation: 0.020  Max. occupation: 1.980):

 Closed:       21
 Active:        0


 **********************************************************************************************************************************
 DATASETS  * FILE   NREC   LENGTH (MB)   RECORD NAMES
              1      20    37756.57       500      610      700      900      950      970     1000      129      960     1100   
                                          VAR    BASINP    GEOM    SYMINP    ZMAT    AOBASIS   BASIS     P2S    ABASIS      S 
                                         1400     1410     1200     1210     1080     1600     1650     1300     1700     1800   
                                           T        V       H0       H01     AOSYM     SMH    MOLCAS    ERIS     OPER     GRID   

              2       5       16.83       700     1000      520     1800     2200   
                                         GEOM     BASIS   MCVARS    GRID      UKS  

 PROGRAMS   *        TOTAL       UKS       INT
 CPU TIMES  *      2337.25   1212.30   1124.81
 REAL TIME  *      6253.18 SEC
 DISK USED  *       168.05 GB      
 **********************************************************************************************************************************


 PROGRAM * Intrinsic Basis Bonding Analysis (IBBA)          Author: G. Knizia

 Molecular orbitals read from record     2200.2  Type=UKS/ALPHA (state 1.1)
 Fock matrix read from record            2200.2  Type=UKS/TOTAL (state 1.1)
 Orbital energies read from record       2200.2  Type=UKS/ALPHA (state 1.1)
 Density matrix read from record         2200.2  Type=UKS/CHARGE (state 1.1)

 Number of core orbitals:           5 (   5 )
 Number of closed-shell orbitals:  16 (  16 )

 Basis set MINAO-AUTO-PP generated.      Number of basis functions:   35 

 Polarized AO type:                A = (O Ot + (1-O)(1-Ot)) P12
 Orthogonalization method:         Symmetric (Loewdin)
 Localization functional:          L = sum[A,i] <i|n_A|i>^4 -> max

 Localization group 1:  21 orbitals, occupancy  2.000
 Iterative localization: IB/PM,    7 iter; Final gradient 0.59E-08

 Bond order analysis:       [THRPRINT= 0.020]

   CEN ATOM   CEN ATOM     WIBERG.BO      RENORM.BO
     1   C  -   2   C       0.996089       0.991793
     1   C  -   5   H       0.954803       0.985606
     1   C  -   6   H       0.949829       0.979247
     1   C  -   7   H       0.949829       0.979247

     2   C  -   1   C       0.996089       0.991793
     2   C  -   9   C       0.995106       0.972937
     2   C  -   8   C       0.995106       0.972937
     2   C  -   3   O       0.936513       0.939150

     3   O  -   2   C       0.936513       0.939150
     3   O  -   4   H       0.854559       0.971881
     3   O  -   9   C       0.031227       0.016032
     3   O  -   8   C       0.031227       0.016032

     4   H  -   3   O       0.854559       0.971881

     5   H  -   1   C       0.954803       0.985606

     6   H  -   1   C       0.949829       0.979247

     7   H  -   1   C       0.949829       0.979247

     8   C  -   2   C       0.995106       0.972937
     8   C  -  14   H       0.954335       0.980055
     8   C  -  10   H       0.950442       0.979042
     8   C  -  12   H       0.949795       0.978782
     8   C  -   3   O       0.031227       0.016032

     9   C  -   2   C       0.995106       0.972937
     9   C  -  15   H       0.954335       0.980055
     9   C  -  11   H       0.950442       0.979042
     9   C  -  13   H       0.949795       0.978782
     9   C  -   3   O       0.031227       0.016032

    10   H  -   8   C       0.950442       0.979042

    11   H  -   9   C       0.950442       0.979042

    12   H  -   8   C       0.949795       0.978782

    13   H  -   9   C       0.949795       0.978782

    14   H  -   8   C       0.954335       0.980055

    15   H  -   9   C       0.954335       0.980055


 Valency analysis:

   CEN ATOM   TOT.VALENCE
     1   C       3.918915
     2   C       3.935945
     3   O       1.930988
     4   H       0.877019
     5   H       0.976665
     6   H       0.973963
     7   H       0.973963
     8   C       3.921863
     9   C       3.921863
    10   H       0.973992
    11   H       0.973992
    12   H       0.975809
    13   H       0.975809
    14   H       0.978557
    15   H       0.978557

 Total charge composition:

   CEN ATOM         s          p       ELECTRONS ->P.CHARGE
     1   C       3.03976    3.42731      6.46707   -0.46707
     2   C       2.92968    2.82747      5.75715    0.24285
     3   O       3.64384    4.92298      8.56682   -0.56682
     4   H       0.64931                 0.64931    0.35069
     5   H       0.84724                 0.84724    0.15276
     6   H       0.83864                 0.83864    0.16136
     7   H       0.83864                 0.83864    0.16136
     8   C       3.04663    3.43416      6.48080   -0.48080
     9   C       3.04663    3.43416      6.48080   -0.48080
    10   H       0.83873                 0.83873    0.16127
    11   H       0.83873                 0.83873    0.16127
    12   H       0.84447                 0.84447    0.15553
    13   H       0.84447                 0.84447    0.15553
    14   H       0.85357                 0.85357    0.14643
    15   H       0.85357                 0.85357    0.14643

 Total charge composition, AO contributions:

   CEN ATOM SHL      SPHERICAL COMPONENTS
     1   C  1s       1.99209
     1   C  2s       1.04767
     1   C  2p       1.04875    1.18296    1.19561

     2   C  1s       1.99364
     2   C  2s       0.93604
     2   C  2p       1.01293    0.79860    1.01594

     3   O  1s       1.99739
     3   O  2s       1.64645
     3   O  2p       1.48224    1.49007    1.95067

     4   H  1s       0.64931

     5   H  1s       0.84724

     6   H  1s       0.83864

     7   H  1s       0.83864

     8   C  1s       1.99218
     8   C  2s       1.05445
     8   C  2p       1.16350    1.16313    1.10753

     9   C  1s       1.99218
     9   C  2s       1.05445
     9   C  2p       1.16350    1.16313    1.10753

    10   H  1s       0.83873

    11   H  1s       0.83873

    12   H  1s       0.84447

    13   H  1s       0.84447

    14   H  1s       0.85357

    15   H  1s       0.85357

 Summary of localized orbital composition:   [THRPRINT= 0.020]

   ORB  GRP  ORB.ENERGY      CENTERS/CHARGES
     1   1   -18.456454      O  3   2.000
     2   1    -9.758908      C  2   2.000
     3   1    -9.664367      C  9   2.000
     4   1    -9.664367      C  8   2.000
     5   1    -9.658257      C  1   2.000
     6   1    -0.701002      O  3   1.354   H  4   0.636
     7   1    -0.663516      O  3   1.278   C  2   0.702
     8   1    -0.524071      C  9   1.007   C  2   0.976
     9   1    -0.524071      C  8   1.007   C  2   0.976
    10   1    -0.523423      C  1   0.990   C  2   0.984   (other: 0.026)
    11   1    -0.503531      O  3   1.980   (other: 0.020)
    12   1    -0.455101      C  8   1.150   H 12   0.833
    13   1    -0.455101      C  9   1.150   H 13   0.833
    14   1    -0.453920      C  9   1.141   H 15   0.845
    15   1    -0.453920      C  8   1.141   H 14   0.845
    16   1    -0.450845      C  1   1.145   H  5   0.839
    17   1    -0.448914      C  8   1.159   H 10   0.829
    18   1    -0.448914      C  9   1.159   H 11   0.829
    19   1    -0.444307      C  1   1.158   H  7   0.829
    20   1    -0.444307      C  1   1.158   H  6   0.829
    21   1    -0.260418      O  3   1.951   (other: 0.049)

 Localized orbitals saved to record      2200.2  (orbital set 4)


 **********************************************************************************************************************************
 DATASETS  * FILE   NREC   LENGTH (MB)   RECORD NAMES
              1      20    37756.57       500      610      700      900      950      970     1000      129      960     1100   
                                          VAR    BASINP    GEOM    SYMINP    ZMAT    AOBASIS   BASIS     P2S    ABASIS      S 
                                         1400     1410     1200     1210     1080     1600     1650     1300     1700     1800   
                                           T        V       H0       H01     AOSYM     SMH    MOLCAS    ERIS     OPER     GRID   

              2       5       19.57       700     1000      520     1800     2200   
                                         GEOM     BASIS   MCVARS    GRID      UKS  

 PROGRAMS   *        TOTAL      IBBA       UKS       INT
 CPU TIMES  *      2337.71      0.46   1212.30   1124.81
 REAL TIME  *      6253.75 SEC
 DISK USED  *       168.05 GB      
 **********************************************************************************************************************************
 Molecular orbitals read from record     2200.2  Type=UKS/LOCAL(IBO)  
 Occupation numbers read from record     2200.2  Type=UKS/LOCAL(IBO)  
 Orbital energies read from record       2200.2  Type=UKS/LOCAL(IBO)  
 Redundancy group numbers read from rec  2200.2  Type=UKS/BETA (state 1.1)

 IBBA/QZVP energy=      0.000000000000

        UKS-SCF 
   -231.74565228
 **********************************************************************************************************************************
 Molpro calculation terminated
