
 Primary working directories    : /tmp/sb13343
 Secondary working directories  : /tmp/sb13343
 Wavefunction directory         : /panfs/panasas01/chem/sb13343/wfu/
 Main file repository           : /tmp/sb13343/

 SHA1      : b4a5b34a9e711420743f49e6833241d17c61fb3c
 NAME      : 2099.9.b4a5b34
 ARCHNAME  : linux/x86_64_openmp
 FC        : /cm/shared/languages/GCC-6.1/bin/gfortran
 BLASLIB   : -lblas
 id        : simonbennie

 Nodes     nprocs
 node34-036    1

 Using customized tuning parameters: mindgm=1; mindgv=20; mindgc=4; mindgr=1; noblas=0; minvec=7
 default implementation of scratch files=df  

 memory,500,m
 geomtyp=xyz
 nosym
 noorient
 geometry={
 C          0.00000        0.00000        0.00000
 C          1.54025       -0.00009       -0.00004
 C         -0.51333        1.45219       -0.00005
 C         -0.51349       -0.72611       -1.25756
 C         -0.51342       -0.72599        1.25765
 H         -1.60999        1.48489       -0.00002
 H         -1.61015       -0.74237       -1.28580
 H         -1.61008       -0.74225        1.28596
 H         -0.16312        1.99638        0.88591
 H         -0.16316        1.99630       -0.88608
 H         -0.16333       -0.23096       -2.17186
 H         -0.16339       -1.76551       -1.28580
 H         -0.16332       -1.76539        1.28596
 H         -0.16320       -0.23077        2.17189
 H          1.93652       -1.02316       -0.00001
 H          1.93658        0.51138       -0.88607
 H          1.93663        0.51146        0.88592
 }
 basis={ default,svp }
 {uks,MM06-L,direct;wf,42,1,0}
 {ibba,bonds=1}

 Variables initialized (895), CPU time= 0.00 sec
 Commands  initialized (725), CPU time= 0.01 sec, 591 directives.
 Default parameters read. Elapsed time= 0.08 sec

 Checking input...
 Passed
1


                                         ***  PROGRAM SYSTEM MOLPRO  ***
                                       Copyright, TTI GmbH Stuttgart, 2015
                                    Version 2099.9 linked May 26 2017 16:03:21


 **********************************************************************************************************************************
 LABEL *                                                                                 
  64 bit serial version                                                                  DATE: 08-Jun-17          TIME: 22:28:12  
 **********************************************************************************************************************************

 SHA1:             b4a5b34a9e711420743f49e6833241d17c61fb3c
 **********************************************************************************************************************************
 SETTING GEOMTYP        =    XYZ

 Variable memory set to  500000000 words,  buffer space 

 ZSYMEL=NOSYM

 SETTING BASIS          =    SVP


 Recomputing integrals since basis changed


 Using spherical harmonics

 Library entry C      S def2-SVP             selected for orbital group  1
 Library entry C      P def2-SVP             selected for orbital group  1
 Library entry C      D def2-SVP             selected for orbital group  1
 Library entry H      S def2-SVP             selected for orbital group  2
 Library entry H      P def2-SVP             selected for orbital group  2


 PROGRAM * SEWARD (Integral evaluation for generally contracted gaussian basis sets)     Author: Roland Lindh, 1990

 Geometry written to block  1 of record 700


 Point group  C1  



 ATOMIC COORDINATES

 NR  ATOM    CHARGE       X              Y              Z

   1  C       6.00    0.000000000    0.000000000    0.000000000
   2  C       6.00    2.910650663   -0.000170075   -0.000075589
   3  C       6.00   -0.970053112    2.744241381   -0.000094486
   4  C       6.00   -0.970355468   -1.372149036   -2.376443985
   5  C       6.00   -0.970223187   -1.371922269    2.376614061
   6  H       1.00   -3.042440163    2.806035425   -0.000037795
   7  H       1.00   -3.042742519   -1.402875983   -2.429809851
   8  H       1.00   -3.042610239   -1.402649216    2.430112207
   9  H       1.00   -0.308252125    3.772611441    1.674127271
  10  H       1.00   -0.308327714    3.772460262   -1.674448524
  11  H       1.00   -0.308648968   -0.436451146   -4.104220581
  12  H       1.00   -0.308762351   -3.336330370   -2.429809851
  13  H       1.00   -0.308630071   -3.336103603    2.430112207
  14  H       1.00   -0.308403304   -0.436092098    4.104277273
  15  H       1.00    3.659492435   -1.933492182   -0.000018897
  16  H       1.00    3.659605818    0.966368146   -1.674429627
  17  H       1.00    3.659700305    0.966519324    1.674146168

 Bond lengths in Bohr (Angstrom)

  1- 2  2.910650669   1- 3  2.910646630   1- 4  2.910647475   1- 5  2.910635350   2-15  2.073282028
       ( 1.540250003)       ( 1.540247866)       ( 1.540248313)       ( 1.540241896)       ( 1.097133601)

  2-16  2.073304464   2-17  2.073302258   3- 6  2.073308129   3- 9  2.073293037   3-10  2.073300754
       ( 1.097145474)       ( 1.097144306)       ( 1.097147413)       ( 1.097139427)       ( 1.097143510)

  4- 7  2.073301752   4-11  2.073306055   4-12  2.073297296   5- 8  2.073305161   5-13  2.073300706
       ( 1.097144038)       ( 1.097146316)       ( 1.097141681)       ( 1.097145842)       ( 1.097143485)

  5-14  2.073307464
       ( 1.097147061)

 Bond angles

  1- 2-15  111.17643746   1- 2-16  111.17582452   1- 2-17  111.17607088   1- 3- 6  111.17575783

  1- 3- 9  111.17644989   1- 3-10  111.17611121   1- 4- 7  111.17614317   1- 4-11  111.17631877

  1- 4-12  111.17675056   1- 5- 8  111.17663037   1- 5-13  111.17645588   1- 5-14  111.17672823

  2-1-3  109.47117711   2-1-4  109.47117360   2-1-5  109.47107360   3-1-4  109.47144919

  3- 1- 5  109.47121161   4- 1- 5  109.47123870   6- 3- 9  107.71338639   6- 3-10  107.71391335

  7- 4-11  107.71323113   7- 4-12  107.71354587   8- 5-13  107.71328790   8- 5-14  107.71342022

  9- 3-10  107.71420977  11- 4-12  107.71378459  13- 5-14  107.71321488  15- 2-16  107.71365571

 15- 2-17  107.71411853  16- 2-17  107.71372051

 NUCLEAR CHARGE:                   42
 NUMBER OF PRIMITIVE AOS:         209
 NUMBER OF SYMMETRY AOS:          204
 NUMBER OF CONTRACTIONS:          130   ( 130A   )
 NUMBER OF CORE ORBITALS:           5   (   5A   )
 NUMBER OF VALENCE ORBITALS:       32   (  32A   )


 NUCLEAR REPULSION ENERGY  197.66618863


 Eigenvalues of metric

         1 0.175E-02 0.577E-02 0.577E-02 0.577E-02 0.252E-01 0.252E-01 0.252E-01 0.256E-01


 Contracted 2-electron integrals neglected if value below      1.0D-11
 AO integral compression algorithm  1   Integral accuracy      1.0D-11

     139.198 MB (compressed) written to integral file ( 45.3%)


 NUMBER OF SORTED TWO-ELECTRON INTEGRALS:   36256870.     BUFFER LENGTH:  32768
 NUMBER OF SEGMENTS:   3  SEGMENT LENGTH:   15998004      RECORD LENGTH: 524288

 Memory used in sort:      16.56 MW

 SORT1 READ    38373714. AND WROTE    33465425. INTEGRALS IN     97 RECORDS. CPU TIME:     0.49 SEC, REAL TIME:     0.94 SEC
 SORT2 READ    33465425. AND WROTE    36256870. INTEGRALS IN    531 RECORDS. CPU TIME:     0.75 SEC, REAL TIME:     0.97 SEC

 FILE SIZES:   FILE 1:   170.1 MBYTE,  FILE 4:   406.9 MBYTE,   TOTAL:    576.9 MBYTE

 OPERATOR DM      FOR CENTER  0  COORDINATES:    0.000000    0.000000    0.000000


 **********************************************************************************************************************************
 DATASETS  * FILE   NREC   LENGTH (MB)   RECORD NAMES
              1      19      153.85       500      610      700      900      950      970     1000      129      960     1100   
                                          VAR    BASINP    GEOM    SYMINP    ZMAT    AOBASIS   BASIS     P2S    ABASIS      S 
                                         1400     1410     1200     1210     1080     1600     1650     1300     1700   
                                           T        V       H0       H01     AOSYM     SMH    MOLCAS    ERIS     OPER   

 PROGRAMS   *        TOTAL       INT
 CPU TIMES  *         5.05      4.91
 REAL TIME  *        10.92 SEC
 DISK USED  *       577.52 MB      
 **********************************************************************************************************************************

 Density functional group MM06-L=M06LX+M06LC
 Functional: M06LX(Automatically generated (new) M06LX)                        Gradient terms: 2
 Functional: M06LC(Automatically generated (new) M06LC)                        Gradient terms: 2
 Use grid at  1800.2

 Functional: M06LX                     Factor:  1.0000
 Functional: M06LC                     Factor:  1.0000

 Generated new metagrid on record  1800.2 with target accuracy 1.0D-06 and 57016 points in CPU time    1.7
 Computed new grid on record 1800.1 in CPU time    1.9
  206573 words reserved for DFT integration

 PROGRAM * UKS-SCF (Unrestricted Kohn-Sham)     Authors: W. Meyer, H.-J. Werner, P.J. Knowles, 1993

 NUMBER OF ELECTRONS:      21+   21-    SPACE SYMMETRY=1    SPIN SYMMETRY: Singlet 
 CONVERGENCE THRESHOLDS:    1.00E-05 (Density)    1.00E-06 (Energy)
 MAX. NUMBER OF ITERATIONS:       60
 INTERPOLATION TYPE:            DIIS
 INTERPOLATION STEPS:              2 (START)      1 (STEP)
 LEVEL SHIFTS:                 -0.20 (ALPHA)  -0.20 (BETA) 



 Use fine grid record 1800.2 for energy threshold  1.0D-06
 Orbital guess generated from atomic densities. Full valence occupancy:   21

 Molecular orbital dump at record        2200.2

 Initial alpha occupation  21
 Initial beta  occupation  21

 ITERATION    DDIFF          GRAD             ENERGY        2-EL.EN.            DIPOLE MOMENTS         DIIS
    1      0.000D+00      0.000D+00      -197.33585148    600.183195    0.00008   -0.00065   -0.00000    0
    2      0.111D-01      0.514D-02      -197.55602587    577.889735   -0.01138   -0.01397    0.00001    1
    3      0.349D-02      0.228D-02      -197.59641752    583.785936   -0.00211   -0.00652    0.00000    2
    4      0.749D-03      0.219D-03      -197.59708955    583.442324   -0.00170   -0.00685    0.00000    3
    5      0.331D-03      0.974D-04      -197.59722525    583.452087   -0.00198   -0.00682    0.00000    4
    6      0.202D-03      0.315D-04      -197.59724688    583.402177   -0.00245   -0.00689    0.00000    5
    7      0.324D-04      0.571D-05      -197.59724745    583.407387   -0.00245   -0.00699    0.00000    6
    8      0.466D-05      0.640D-06      -197.59724746    583.406831   -0.00247   -0.00698    0.00000    5
    9      0.101D-05      0.200D-06      -197.59724746    583.407325   -0.00246   -0.00698    0.00000    6

 Final alpha occupancy:  21
 Final beta  occupancy:  21

 !UKS STATE 1.1 Energy               -197.597247462476
 Nuclear energy                       197.66618863
 One-electron energy                 -655.37533972
 Two-electron energy                  291.70366240
 Density functional                   -31.59175878     M06LX=-30.14758294 M06LC= -1.44417584
 Virial quotient                       -1.01265121
 !UKS STATE 1.1 Dipole moment          -0.00246122    -0.00698493     0.00000309
 Dipole moment /Debye                  -0.00625540    -0.01775276     0.00000784

 Orbital energies for positive spin:

         1.1          2.1          3.1          4.1          5.1          6.1          7.1          8.1          9.1         10.1
    -10.068143   -10.046230   -10.046221   -10.046142   -10.045944    -0.770956    -0.635668    -0.635524    -0.635367    -0.489616

        11.1         12.1         13.1         14.1         15.1         16.1         17.1         18.1         19.1         20.1
     -0.407107    -0.406735    -0.406674    -0.359617    -0.359567    -0.326255    -0.326100    -0.325697    -0.288179    -0.287596

        21.1         22.1         23.1
     -0.287453     0.059605     0.108651

 Orbital energies for negative spin:

         1.1          2.1          3.1          4.1          5.1          6.1          7.1          8.1          9.1         10.1
    -10.068143   -10.046230   -10.046221   -10.046142   -10.045944    -0.770956    -0.635668    -0.635524    -0.635367    -0.489616

        11.1         12.1         13.1         14.1         15.1         16.1         17.1         18.1         19.1         20.1
     -0.407107    -0.406735    -0.406674    -0.359617    -0.359567    -0.326255    -0.326100    -0.325697    -0.288179    -0.287596

        21.1         22.1         23.1
     -0.287453     0.059605     0.108651

 HOMO     21.1    -0.287453 =      -7.8220eV
 LUMO     22.1     0.059605 =       1.6219eV
 LUMO-HOMO         0.347058 =       9.4439eV

 EXPECTATION VALUE OF S**2:            -0.00000000

 Natural orbitals saved to record    2200.2 (Orbital set 3)

 Orbital spaces for UNO-CAS (Min. occupation: 0.020  Max. occupation: 1.980):

 Closed:       21
 Active:        0


 **********************************************************************************************************************************
 DATASETS  * FILE   NREC   LENGTH (MB)   RECORD NAMES
              1      20      155.67       500      610      700      900      950      970     1000      129      960     1100   
                                          VAR    BASINP    GEOM    SYMINP    ZMAT    AOBASIS   BASIS     P2S    ABASIS      S 
                                         1400     1410     1200     1210     1080     1600     1650     1300     1700     1800   
                                           T        V       H0       H01     AOSYM     SMH    MOLCAS    ERIS     OPER     GRID   

              2       5        3.74       700     1000      520     1800     2200   
                                         GEOM     BASIS   MCVARS    GRID      UKS  

 PROGRAMS   *        TOTAL       UKS       INT
 CPU TIMES  *        98.75     93.70      4.91
 REAL TIME  *       104.92 SEC
 DISK USED  *       577.52 MB      
 **********************************************************************************************************************************


 PROGRAM * Intrinsic Basis Bonding Analysis (IBBA)          Author: G. Knizia

 Molecular orbitals read from record     2200.2  Type=UKS/ALPHA (state 1.1)
 Fock matrix read from record            2200.2  Type=UKS/TOTAL (state 1.1)
 Orbital energies read from record       2200.2  Type=UKS/ALPHA (state 1.1)
 Density matrix read from record         2200.2  Type=UKS/CHARGE (state 1.1)

 Number of core orbitals:           5 (   5 )
 Number of closed-shell orbitals:  16 (  16 )

 Basis set MINAO-AUTO-PP generated.      Number of basis functions:   37 

 Polarized AO type:                A = (O Ot + (1-O)(1-Ot)) P12
 Orthogonalization method:         Symmetric (Loewdin)
 Localization functional:          L = sum[A,i] <i|n_A|i>^4 -> max

 Localization group 1:  21 orbitals, occupancy  2.000
 Iterative localization: IB/PM,    7 iter; Final gradient 0.45E-08

 Bond order analysis:       [THRPRINT= 0.020]

   CEN ATOM   CEN ATOM     WIBERG.BO      RENORM.BO
     1   C  -   3   C       0.997771       0.998120
     1   C  -   5   C       0.997622       0.998044
     1   C  -   4   C       0.997621       0.998042
     1   C  -   2   C       0.997216       0.997578

     2   C  -   1   C       0.997216       0.997578
     2   C  -  15   H       0.965734       0.981596
     2   C  -  16   H       0.965637       0.981439
     2   C  -  17   H       0.965637       0.981439

     3   C  -   1   C       0.997771       0.998120
     3   C  -  10   H       0.965496       0.981355
     3   C  -   9   H       0.965496       0.981355
     3   C  -   6   H       0.965439       0.981472

     4   C  -   1   C       0.997621       0.998042
     4   C  -  11   H       0.965400       0.981219
     4   C  -   7   H       0.965399       0.981418
     4   C  -  12   H       0.965334       0.981467

     5   C  -   1   C       0.997622       0.998044
     5   C  -  14   H       0.965400       0.981218
     5   C  -   8   H       0.965399       0.981418
     5   C  -  13   H       0.965333       0.981466

     6   H  -   3   C       0.965439       0.981472

     7   H  -   4   C       0.965399       0.981418

     8   H  -   5   C       0.965399       0.981418

     9   H  -   3   C       0.965496       0.981355

    10   H  -   3   C       0.965496       0.981355

    11   H  -   4   C       0.965400       0.981219

    12   H  -   4   C       0.965334       0.981467

    13   H  -   5   C       0.965333       0.981466

    14   H  -   5   C       0.965400       0.981218

    15   H  -   2   C       0.965734       0.981596

    16   H  -   2   C       0.965637       0.981439

    17   H  -   2   C       0.965637       0.981439


 Valency analysis:

   CEN ATOM   TOT.VALENCE
     1   C       3.995522
     2   C       3.947543
     3   C       3.947260
     4   C       3.947152
     5   C       3.947153
     6   H       0.984330
     7   H       0.984364
     8   H       0.984364
     9   H       0.984474
    10   H       0.984474
    11   H       0.984518
    12   H       0.984260
    13   H       0.984260
    14   H       0.984518
    15   H       0.984522
    16   H       0.984487
    17   H       0.984487

 Total charge composition:

   CEN ATOM         s          p       ELECTRONS ->P.CHARGE
     1   C       2.93191    2.97915      5.91106    0.08894
     2   C       3.03887    3.35682      6.39570   -0.39570
     3   C       3.03901    3.35831      6.39732   -0.39732
     4   C       3.03885    3.35799      6.39684   -0.39684
     5   C       3.03885    3.35799      6.39684   -0.39684
     6   H       0.87482                 0.87482    0.12518
     7   H       0.87495                 0.87495    0.12505
     8   H       0.87496                 0.87496    0.12504
     9   H       0.87540                 0.87540    0.12460
    10   H       0.87540                 0.87540    0.12460
    11   H       0.87557                 0.87557    0.12443
    12   H       0.87454                 0.87454    0.12546
    13   H       0.87454                 0.87454    0.12546
    14   H       0.87557                 0.87557    0.12443
    15   H       0.87559                 0.87559    0.12441
    16   H       0.87545                 0.87545    0.12455
    17   H       0.87545                 0.87545    0.12455

 Total charge composition, AO contributions:

   CEN ATOM SHL      SPHERICAL COMPONENTS
     1   C  1s       1.99186
     1   C  2s       0.94005
     1   C  2p       0.99312    0.99325    0.99278

     2   C  1s       1.99087
     2   C  2s       1.04800
     2   C  2p       1.05670    1.15042    1.14971

     3   C  1s       1.99087
     3   C  2s       1.04814
     3   C  2p       1.14050    1.06763    1.15018

     4   C  1s       1.99087
     4   C  2s       1.04798
     4   C  2p       1.14021    1.13038    1.08740

     5   C  1s       1.99087
     5   C  2s       1.04798
     5   C  2p       1.14021    1.13039    1.08739

     6   H  1s       0.87482

     7   H  1s       0.87495

     8   H  1s       0.87496

     9   H  1s       0.87540

    10   H  1s       0.87540

    11   H  1s       0.87557

    12   H  1s       0.87454

    13   H  1s       0.87454

    14   H  1s       0.87557

    15   H  1s       0.87559

    16   H  1s       0.87545

    17   H  1s       0.87545

 Summary of localized orbital composition:   [THRPRINT= 0.020]

   ORB  GRP  ORB.ENERGY      CENTERS/CHARGES
     1   1    -9.971630      C  1   2.000
     2   1    -9.932109      C  4   2.000
     3   1    -9.932108      C  5   2.000
     4   1    -9.932017      C  3   2.000
     5   1    -9.931835      C  2   2.000
     6   1    -0.512926      C  3   1.013   C  1   0.962   (other: 0.025)
     7   1    -0.512925      C  5   1.012   C  1   0.962   (other: 0.025)
     8   1    -0.512921      C  4   1.012   C  1   0.962   (other: 0.025)
     9   1    -0.512680      C  2   1.012   C  1   0.962   (other: 0.025)
    10   1    -0.454687      C  4   1.124   H 12   0.867
    11   1    -0.454685      C  5   1.124   H 13   0.867
    12   1    -0.454346      C  3   1.124   H  6   0.867
    13   1    -0.454326      C  4   1.124   H  7   0.867
    14   1    -0.454326      C  5   1.124   H  8   0.867
    15   1    -0.454078      C  2   1.123   H 17   0.868
    16   1    -0.454077      C  2   1.123   H 16   0.868
    17   1    -0.453917      C  2   1.123   H 15   0.868
    18   1    -0.453903      C  3   1.123   H  9   0.868
    19   1    -0.453902      C  3   1.123   H 10   0.868
    20   1    -0.453661      C  4   1.123   H 11   0.868
    21   1    -0.453661      C  5   1.123   H 14   0.868

 Localized orbitals saved to record      2200.2  (orbital set 4)


 **********************************************************************************************************************************
 DATASETS  * FILE   NREC   LENGTH (MB)   RECORD NAMES
              1      20      155.67       500      610      700      900      950      970     1000      129      960     1100   
                                          VAR    BASINP    GEOM    SYMINP    ZMAT    AOBASIS   BASIS     P2S    ABASIS      S 
                                         1400     1410     1200     1210     1080     1600     1650     1300     1700     1800   
                                           T        V       H0       H01     AOSYM     SMH    MOLCAS    ERIS     OPER     GRID   

              2       5        3.88       700     1000      520     1800     2200   
                                         GEOM     BASIS   MCVARS    GRID      UKS  

 PROGRAMS   *        TOTAL      IBBA       UKS       INT
 CPU TIMES  *        98.79      0.04     93.70      4.91
 REAL TIME  *       105.08 SEC
 DISK USED  *       577.52 MB      
 **********************************************************************************************************************************
 Molecular orbitals read from record     2200.2  Type=UKS/LOCAL(IBO)  
 Occupation numbers read from record     2200.2  Type=UKS/LOCAL(IBO)  
 Orbital energies read from record       2200.2  Type=UKS/LOCAL(IBO)  
 Redundancy group numbers read from rec  2200.2  Type=UKS/BETA (state 1.1)

 IBBA/SVP energy=      0.000000000000

        UKS-SCF 
   -197.59724746
 **********************************************************************************************************************************
 Molpro calculation terminated
