
 Primary working directories    : /local
 Secondary working directories  : /local
 Wavefunction directory         : /local/
 Main file repository           : /local/

 SHA1      : b4a5b34a9e711420743f49e6833241d17c61fb3c
 NAME      : 2099.9.b4a5b34
 ARCHNAME  : linux/x86_64_openmp
 FC        : /cm/shared/languages/GCC-6.1/bin/gfortran
 BLASLIB   : -lblas
 id        : simonbennie

 Nodes     nprocs
 node45-010    1

 Using customized tuning parameters: mindgm=1; mindgv=20; mindgc=4; mindgr=1; noblas=0; minvec=7
 default implementation of scratch files=df  

 memory,500,m
 geomtyp=xyz
 nosym
 noorient
 geometry={
 C         -1.53233        0.02247        0.00000
 C         -0.00192        0.01421        0.00000
 O          0.37239        1.40356        0.00000
 H          1.34248        1.44036        0.00000
 H         -1.92991       -0.99819        0.00000
 H         -1.90797        0.54382       -0.88653
 H         -1.90797        0.54382        0.88653
 C          0.54303       -0.66466       -1.26580
 C          0.54303       -0.66466        1.26580
 H          0.17836       -0.14752       -2.15943
 H          0.17836       -0.14752        2.15943
 H          0.23752       -1.71600       -1.32280
 H          0.23752       -1.71600        1.32280
 H          1.64084       -0.63767       -1.28032
 H          1.64084       -0.63767        1.28032
 }
 basis={ default,avdz }
 {ks,M05-2X,direct;wf,42,1,0}
 {ibba,bonds=1}

 Variables initialized (895), CPU time= 0.01 sec
 Commands  initialized (725), CPU time= 0.01 sec, 591 directives.
 Default parameters read. Elapsed time= 4.44 sec

 Checking input...
 Passed
1


                                         ***  PROGRAM SYSTEM MOLPRO  ***
                                       Copyright, TTI GmbH Stuttgart, 2015
                                    Version 2099.9 linked May 26 2017 16:03:21


 **********************************************************************************************************************************
 LABEL *                                                                                 
  64 bit serial version                                                                  DATE: 12-Jun-17          TIME: 16:17:52  
 **********************************************************************************************************************************

 SHA1:             b4a5b34a9e711420743f49e6833241d17c61fb3c
 **********************************************************************************************************************************
 SETTING GEOMTYP        =    XYZ

 Variable memory set to  500000000 words,  buffer space 

 ZSYMEL=NOSYM

 SETTING BASIS          =    AVDZ


 Recomputing integrals since basis changed


 Using spherical harmonics

 Library entry C      S aug-cc-pVDZ          selected for orbital group  1
 Library entry C      P aug-cc-pVDZ          selected for orbital group  1
 Library entry C      D aug-cc-pVDZ          selected for orbital group  1
 Library entry O      S aug-cc-pVDZ          selected for orbital group  2
 Library entry O      P aug-cc-pVDZ          selected for orbital group  2
 Library entry O      D aug-cc-pVDZ          selected for orbital group  2
 Library entry H      S aug-cc-pVDZ          selected for orbital group  3
 Library entry H      P aug-cc-pVDZ          selected for orbital group  3


 PROGRAM * SEWARD (Integral evaluation for generally contracted gaussian basis sets)     Author: Roland Lindh, 1990

 Geometry written to block  1 of record 700


 Point group  C1  



 ATOMIC COORDINATES

 NR  ATOM    CHARGE       X              Y              Z

   1  C       6.00   -2.895684032    0.042462146    0.000000000
   2  C       6.00   -0.003628274    0.026853008    0.000000000
   3  O       8.00    0.703715112    2.652343999    0.000000000
   4  H       1.00    2.536919528    2.721885921    0.000000000
   5  H       1.00   -3.647001345   -1.886305720    0.000000000
   6  H       1.00   -3.605540754    1.027670861   -1.675298901
   7  H       1.00   -3.605540754    1.027670861    1.675298901
   8  C       6.00    1.026177977   -1.256025366   -2.392015328
   9  C       6.00    1.026177977   -1.256025366    2.392015328
  10  H       1.00    0.337051552   -0.278772398   -4.080731285
  11  H       1.00    0.337051552   -0.278772398    4.080731285
  12  H       1.00    0.448847749   -3.242770030   -2.499729718
  13  H       1.00    0.448847749   -3.242770030    2.499729718
  14  H       1.00    3.100738214   -1.205021658   -2.419454152
  15  H       1.00    3.100738214   -1.205021658    2.419454152

 Bond lengths in Bohr (Angstrom)

 1-2  2.892097881  1-5  2.069933136  1-6  2.069096224  1-7  2.069096224  2-3  2.719106031
     ( 1.530432290)     ( 1.095361444)     ( 1.094918569)     ( 1.094918569)     ( 1.438888946)

  2- 8  2.903104402   2- 9  2.903104402   3- 4  1.834522965   8-10  2.069222119   8-12  2.071730422
       ( 1.536256691)       ( 1.536256691)       ( 0.970787746)       ( 1.094985190)       ( 1.096312526)

  8-14  2.075368508   9-11  2.069222119   9-13  2.071730422   9-15  2.075368508
       ( 1.098237719)       ( 1.094985190)       ( 1.096312526)       ( 1.098237719)

 Bond angles

  1-2-3  104.76902697   1-2-8  110.92255387   1-2-9  110.92255387   2-1-5  110.97328220

  2- 1- 6  110.22090701   2- 1- 7  110.22090701   2- 3- 4  107.25071562   2- 8-10  110.21836376

  2- 8-12  111.57747468   2- 8-14  110.77023896   2- 9-11  110.21836376   2- 9-13  111.57747468

  2- 9-15  110.77023896   3- 2- 8  109.53648747   3- 2- 9  109.53648747   5- 1- 6  108.61190457

  5- 1- 7  108.61190457   6- 1- 7  108.12870271   8- 2- 9  110.96453384  10- 8-12  108.52192632

 10- 8-14  108.08997829  11- 9-13  108.52192632  11- 9-15  108.08997829  12- 8-14  107.54424578

 13- 9-15  107.54424578

 NUCLEAR CHARGE:                   42
 NUMBER OF PRIMITIVE AOS:         295
 NUMBER OF SYMMETRY AOS:          285
 NUMBER OF CONTRACTIONS:          205   ( 205A   )
 NUMBER OF CORE ORBITALS:           5   (   5A   )
 NUMBER OF VALENCE ORBITALS:       30   (  30A   )


 NUCLEAR REPULSION ENERGY  198.77359127


 Eigenvalues of metric

         1 0.151E-04 0.552E-04 0.579E-04 0.110E-03 0.111E-03 0.217E-03 0.237E-03 0.259E-03


 Contracted 2-electron integrals neglected if value below      1.0D-12
 AO integral compression algorithm  1   Integral accuracy      1.0D-12

     1203.503 MB (compressed) written to integral file ( 61.3%)


 NUMBER OF SORTED TWO-ELECTRON INTEGRALS:  222932170.     BUFFER LENGTH:  32768
 NUMBER OF SEGMENTS:  14  SEGMENT LENGTH:   15999503      RECORD LENGTH: 524288

 Memory used in sort:      16.56 MW

 SORT1 READ   245224724. AND WROTE   218324786. INTEGRALS IN    630 RECORDS. CPU TIME:     3.34 SEC, REAL TIME:     6.21 SEC
 SORT2 READ   218324786. AND WROTE   222932170. INTEGRALS IN   4591 RECORDS. CPU TIME:     5.37 SEC, REAL TIME:     7.26 SEC

 FILE SIZES:   FILE 1:  1235.3 MBYTE,  FILE 4:  2642.4 MBYTE,   TOTAL:   3877.7 MBYTE

 OPERATOR DM      FOR CENTER  0  COORDINATES:    0.000000    0.000000    0.000000


 **********************************************************************************************************************************
 DATASETS  * FILE   NREC   LENGTH (MB)   RECORD NAMES
              1      19     1149.90       500      610      700      900      950      970     1000      129      960     1100   
                                          VAR    BASINP    GEOM    SYMINP    ZMAT    AOBASIS   BASIS     P2S    ABASIS      S 
                                         1400     1410     1200     1210     1080     1600     1650     1300     1700   
                                           T        V       H0       H01     AOSYM     SMH    MOLCAS    ERIS     OPER   

 PROGRAMS   *        TOTAL       INT
 CPU TIMES  *        22.08     21.94
 REAL TIME  *        53.94 SEC
 DISK USED  *         3.88 GB      
 **********************************************************************************************************************************

 Density functional group M05-2X=XC-M05-2X
 Functional: XC-M05-2X(via MFM 1.6)                                            Gradient terms: 1
 Use grid at  1800.2


 Exact exchange will be calculated, factor:  0.5600

 Functional: XC-M05-2X                 Factor:  1.0000

 Generated new metagrid on record  1800.2 with target accuracy 1.0D-06 and 53396 points in CPU time    1.9
 Computed new grid on record 1800.1 in CPU time    2.1
  167289 words reserved for DFT integration

 PROGRAM * RKS-SCF (Restricted closed shell Kohn-Sham)     Authors: W. Meyer, H.-J. Werner, P.J. Knowles, 1993

 NUMBER OF ELECTRONS:      21+   21-    SPACE SYMMETRY=1    SPIN SYMMETRY: Singlet 
 CONVERGENCE THRESHOLDS:    1.00E-05 (Density)    1.00E-06 (Energy)
 MAX. NUMBER OF ITERATIONS:       60
 INTERPOLATION TYPE:            DIIS
 INTERPOLATION STEPS:              2 (START)      1 (STEP)
 LEVEL SHIFTS:                  0.00 (CLOSED)  0.00 (OPEN) 



 Use fine grid record 1800.2 for energy threshold  1.0D-06
 Orbital guess generated from atomic densities. Full valence occupancy:   35

 Molecular orbital dump at record        2100.2

 Initial occupancy:  21

 ITERATION    DDIFF          GRAD             ENERGY        2-EL.EN.            DIPOLE MOMENTS         DIIS   ORB.
    1      0.000D+00      0.000D+00      -233.54769780    594.137658    0.70294   -0.79938    0.00000    0    start
    2      0.000D+00      0.544D-02      -233.58142877    576.571202    0.03947   -0.32704    0.00000    1    diag
    3      0.176D-01      0.497D-02      -233.66559515    585.489197    0.34806   -0.59710    0.00000    2    diag
    4      0.805D-02      0.603D-03      -233.66645003    585.152655    0.33385   -0.52685    0.00000    3    diag
    5      0.111D-02      0.301D-03      -233.66673914    585.150106    0.33564   -0.56871    0.00000    4    diag
    6      0.658D-03      0.445D-04      -233.66674566    585.206122    0.33562   -0.56261    0.00000    5    diag
    7      0.914D-04      0.162D-04      -233.66674660    585.188768    0.33531   -0.56236   -0.00000    6    diag
    8      0.317D-04      0.254D-05      -233.66674663    585.191472    0.33541   -0.56283    0.00000    7    diag
    9      0.815D-05      0.401D-06      -233.66674663    585.191355    0.33539   -0.56270    0.00000    0    orth

 Final occupancy:  21

 !RKS STATE 1.1 Energy               -233.666746626284
 Nuclear energy                       198.77359127
 One-electron energy                 -709.24129499
 Two-electron energy                  292.59567774
 SCF exchange energy                  -32.49437757     Factor= 0.5600
 Density functional                   -15.79472065     XC-M05-2X=-15.79472065
 Virial quotient                       -1.00763039
 !RKS STATE 1.1 Dipole moment           0.33538693    -0.56270082     0.00000000
 Dipole moment /Debye                   0.85241271    -1.43014916     0.00000000

 Orbital energies:

         1.1          2.1          3.1          4.1          5.1          6.1          7.1          8.1          9.1         10.1
    -19.682259   -10.634283   -10.565764   -10.565736   -10.560054    -1.139866    -0.895110    -0.791861    -0.790759    -0.656738

        11.1         12.1         13.1         14.1         15.1         16.1         17.1         18.1         19.1         20.1
     -0.569326    -0.529904    -0.526251    -0.486649    -0.469506    -0.447251    -0.433738    -0.425774    -0.416520    -0.384679

        21.1         22.1         23.1
     -0.345079     0.022109     0.043687

 HOMO     21.1    -0.345079 =      -9.3901eV
 LUMO     22.1     0.022109 =       0.6016eV
 LUMO-HOMO         0.367188 =       9.9917eV


 **********************************************************************************************************************************
 DATASETS  * FILE   NREC   LENGTH (MB)   RECORD NAMES
              1      20     1151.61       500      610      700      900      950      970     1000      129      960     1100   
                                          VAR    BASINP    GEOM    SYMINP    ZMAT    AOBASIS   BASIS     P2S    ABASIS      S 
                                         1400     1410     1200     1210     1080     1600     1650     1300     1700     1800   
                                           T        V       H0       H01     AOSYM     SMH    MOLCAS    ERIS     OPER     GRID   

              2       5        3.87       700     1000      520     1800     2100   
                                         GEOM     BASIS   MCVARS    GRID      RKS  

 PROGRAMS   *        TOTAL        KS       INT
 CPU TIMES  *       164.04    141.96     21.94
 REAL TIME  *       198.00 SEC
 DISK USED  *         3.88 GB      
 **********************************************************************************************************************************


 PROGRAM * Intrinsic Basis Bonding Analysis (IBBA)          Author: G. Knizia

 Molecular orbitals read from record     2100.2  Type=RKS/CANONICAL (state 1.1)
 Fock matrix read from record            2100.2  Type=RKS/TOTAL (state 1.1)
 Orbital energies read from record       2100.2  Type=RKS/CANONICAL (state 1.1)
 Density matrix read from record         2100.2  Type=RKS/CHARGE (state 1.1)

 Number of core orbitals:           5 (   5 )
 Number of closed-shell orbitals:  16 (  16 )

 Basis set MINAO-AUTO-PP generated.      Number of basis functions:   35 

 Polarized AO type:                A = (O Ot + (1-O)(1-Ot)) P12
 Orthogonalization method:         Symmetric (Loewdin)
 Localization functional:          L = sum[A,i] <i|n_A|i>^4 -> max

 Localization group 1:  21 orbitals, occupancy  2.000
 Iterative localization: IB/PM,    7 iter; Final gradient 0.22E-08

 Bond order analysis:       [THRPRINT= 0.020]

   CEN ATOM   CEN ATOM     WIBERG.BO      RENORM.BO
     1   C  -   2   C       0.996187       0.992977
     1   C  -   5   H       0.963199       0.987878
     1   C  -   6   H       0.958227       0.983215
     1   C  -   7   H       0.958227       0.983215

     2   C  -   1   C       0.996187       0.992977
     2   C  -   9   C       0.995121       0.976717
     2   C  -   8   C       0.995121       0.976717
     2   C  -   3   O       0.932551       0.952110

     3   O  -   2   C       0.932551       0.952110
     3   O  -   4   H       0.861989       0.978325
     3   O  -   8   C       0.025634       0.013175
     3   O  -   9   C       0.025634       0.013175

     4   H  -   3   O       0.861989       0.978325

     5   H  -   1   C       0.963199       0.987878

     6   H  -   1   C       0.958227       0.983215

     7   H  -   1   C       0.958227       0.983215

     8   C  -   2   C       0.995121       0.976717
     8   C  -  14   H       0.962755       0.983800
     8   C  -  12   H       0.959458       0.983932
     8   C  -  10   H       0.958694       0.983117
     8   C  -   3   O       0.025634       0.013175

     9   C  -   2   C       0.995121       0.976717
     9   C  -  15   H       0.962755       0.983800
     9   C  -  13   H       0.959458       0.983932
     9   C  -  11   H       0.958694       0.983117
     9   C  -   3   O       0.025634       0.013175

    10   H  -   8   C       0.958694       0.983117

    11   H  -   9   C       0.958694       0.983117

    12   H  -   8   C       0.959458       0.983932

    13   H  -   9   C       0.959458       0.983932

    14   H  -   8   C       0.962755       0.983800

    15   H  -   9   C       0.962755       0.983800


 Valency analysis:

   CEN ATOM   TOT.VALENCE
     1   C       3.931830
     2   C       3.929298
     3   O       1.906831
     4   H       0.879914
     5   H       0.981281
     6   H       0.978058
     7   H       0.978058
     8   C       3.934701
     9   C       3.934701
    10   H       0.978039
    11   H       0.978039
    12   H       0.980099
    13   H       0.980099
    14   H       0.982559
    15   H       0.982559

 Total charge composition:

   CEN ATOM         s          p       ELECTRONS ->P.CHARGE
     1   C       3.03499    3.38851      6.42350   -0.42350
     2   C       2.93812    2.80778      5.74590    0.25410
     3   O       3.63563    4.94427      8.57990   -0.57990
     4   H       0.65347                 0.65347    0.34653
     5   H       0.86318                 0.86318    0.13682
     6   H       0.85187                 0.85187    0.14813
     7   H       0.85187                 0.85187    0.14813
     8   C       3.04058    3.39590      6.43648   -0.43648
     9   C       3.04058    3.39590      6.43648   -0.43648
    10   H       0.85181                 0.85181    0.14819
    11   H       0.85181                 0.85181    0.14819
    12   H       0.85893                 0.85893    0.14107
    13   H       0.85893                 0.85893    0.14107
    14   H       0.86793                 0.86793    0.13207
    15   H       0.86793                 0.86793    0.13207

 Total charge composition, AO contributions:

   CEN ATOM SHL      SPHERICAL COMPONENTS
     1   C  1s       1.99084
     1   C  2s       1.04416
     1   C  2p       1.03952    1.16766    1.18133

     2   C  1s       1.99249
     2   C  2s       0.94563
     2   C  2p       1.01039    0.78544    1.01195

     3   O  1s       1.99702
     3   O  2s       1.63860
     3   O  2p       1.48336    1.50054    1.96037

     4   H  1s       0.65347

     5   H  1s       0.86318

     6   H  1s       0.85187

     7   H  1s       0.85187

     8   C  1s       1.99094
     8   C  2s       1.04965
     8   C  2p       1.14941    1.14893    1.09756

     9   C  1s       1.99094
     9   C  2s       1.04965
     9   C  2p       1.14941    1.14893    1.09756

    10   H  1s       0.85181

    11   H  1s       0.85181

    12   H  1s       0.85893

    13   H  1s       0.85893

    14   H  1s       0.86793

    15   H  1s       0.86793

 Summary of localized orbital composition:   [THRPRINT= 0.020]

   ORB  GRP  ORB.ENERGY      CENTERS/CHARGES
     1   1   -19.518069      O  3   2.000
     2   1   -10.538823      C  2   2.000
     3   1   -10.446988      C  8   2.000
     4   1   -10.446988      C  9   2.000
     5   1   -10.440442      C  1   2.000
     6   1    -0.862092      O  3   1.348   H  4   0.643
     7   1    -0.817607      O  3   1.285   C  2   0.698
     8   1    -0.669205      O  3   1.983
     9   1    -0.655691      C  9   1.006   C  2   0.980
    10   1    -0.655691      C  8   1.006   C  2   0.980
    11   1    -0.654698      C  2   0.990   C  1   0.988   (other: 0.022)
    12   1    -0.584704      C  9   1.136   H 13   0.850
    13   1    -0.584704      C  8   1.136   H 12   0.850
    14   1    -0.582675      C  9   1.128   H 15   0.861
    15   1    -0.582675      C  8   1.128   H 14   0.861
    16   1    -0.579932      C  1   1.131   H  5   0.856
    17   1    -0.578934      C  9   1.146   H 11   0.844
    18   1    -0.578934      C  8   1.146   H 10   0.844
    19   1    -0.574193      C  1   1.145   H  6   0.844
    20   1    -0.574193      C  1   1.145   H  7   0.844
    21   1    -0.389869      O  3   1.960   (other: 0.040)

 Localized orbitals saved to record      2100.2  (orbital set 2)


 **********************************************************************************************************************************
 DATASETS  * FILE   NREC   LENGTH (MB)   RECORD NAMES
              1      20     1151.61       500      610      700      900      950      970     1000      129      960     1100   
                                          VAR    BASINP    GEOM    SYMINP    ZMAT    AOBASIS   BASIS     P2S    ABASIS      S 
                                         1400     1410     1200     1210     1080     1600     1650     1300     1700     1800   
                                           T        V       H0       H01     AOSYM     SMH    MOLCAS    ERIS     OPER     GRID   

              2       5        4.21       700     1000      520     1800     2100   
                                         GEOM     BASIS   MCVARS    GRID      RKS  

 PROGRAMS   *        TOTAL      IBBA        KS       INT
 CPU TIMES  *       164.10      0.06    141.96     21.94
 REAL TIME  *       198.22 SEC
 DISK USED  *         3.88 GB      
 **********************************************************************************************************************************
 Molecular orbitals read from record     2100.2  Type=RKS/LOCAL(IBO)  
 Occupation numbers read from record     2100.2  Type=RKS/LOCAL(IBO)  
 Orbital energies read from record       2100.2  Type=RKS/LOCAL(IBO)  
 Redundancy group numbers read from rec  2100.2  Type=RKS/LOCAL(IBO)  

 IBBA/aug-cc-pVDZ energy=      0.000000000000

        KS-SCF  
   -233.66674663
 **********************************************************************************************************************************
 Molpro calculation terminated
