
 Primary working directories    : /tmp/sb13343
 Secondary working directories  : /tmp/sb13343
 Wavefunction directory         : /panfs/panasas01/chem/sb13343/wfu/
 Main file repository           : /tmp/sb13343/

 SHA1      : b4a5b34a9e711420743f49e6833241d17c61fb3c
 NAME      : 2099.9.b4a5b34
 ARCHNAME  : linux/x86_64_openmp
 FC        : /cm/shared/languages/GCC-6.1/bin/gfortran
 BLASLIB   : -lblas
 id        : simonbennie

 Nodes     nprocs
 node32-007    1

 Using customized tuning parameters: mindgm=1; mindgv=20; mindgc=4; mindgr=1; noblas=0; minvec=7
 default implementation of scratch files=df  

 memory,500,m
 geomtyp=xyz
 nosym
 noorient
 geometry={
 C         -1.53233        0.02247        0.00000
 C         -0.00192        0.01421        0.00000
 O          0.37239        1.40356        0.00000
 H          1.34248        1.44036        0.00000
 H         -1.92991       -0.99819        0.00000
 H         -1.90797        0.54382       -0.88653
 H         -1.90797        0.54382        0.88653
 C          0.54303       -0.66466       -1.26580
 C          0.54303       -0.66466        1.26580
 H          0.17836       -0.14752       -2.15943
 H          0.17836       -0.14752        2.15943
 H          0.23752       -1.71600       -1.32280
 H          0.23752       -1.71600        1.32280
 H          1.64084       -0.63767       -1.28032
 H          1.64084       -0.63767        1.28032
 }
 basis={ default,svp }
 {ks,B-P,direct;wf,42,1,0}
 {ibba,bonds=1}

 Variables initialized (895), CPU time= 0.00 sec
 Commands  initialized (725), CPU time= 0.01 sec, 591 directives.
 Default parameters read. Elapsed time= 0.07 sec

 Checking input...
 Passed
1


                                         ***  PROGRAM SYSTEM MOLPRO  ***
                                       Copyright, TTI GmbH Stuttgart, 2015
                                    Version 2099.9 linked May 26 2017 16:03:21


 **********************************************************************************************************************************
 LABEL *                                                                                 
  64 bit serial version                                                                  DATE: 09-Jun-17          TIME: 03:25:00  
 **********************************************************************************************************************************

 SHA1:             b4a5b34a9e711420743f49e6833241d17c61fb3c
 **********************************************************************************************************************************
 SETTING GEOMTYP        =    XYZ

 Variable memory set to  500000000 words,  buffer space 

 ZSYMEL=NOSYM

 SETTING BASIS          =    SVP


 Recomputing integrals since basis changed


 Using spherical harmonics

 Library entry C      S def2-SVP             selected for orbital group  1
 Library entry C      P def2-SVP             selected for orbital group  1
 Library entry C      D def2-SVP             selected for orbital group  1
 Library entry O      S def2-SVP             selected for orbital group  2
 Library entry O      P def2-SVP             selected for orbital group  2
 Library entry O      D def2-SVP             selected for orbital group  2
 Library entry H      S def2-SVP             selected for orbital group  3
 Library entry H      P def2-SVP             selected for orbital group  3


 PROGRAM * SEWARD (Integral evaluation for generally contracted gaussian basis sets)     Author: Roland Lindh, 1990

 Geometry written to block  1 of record 700


 Point group  C1  



 ATOMIC COORDINATES

 NR  ATOM    CHARGE       X              Y              Z

   1  C       6.00   -2.895684032    0.042462146    0.000000000
   2  C       6.00   -0.003628274    0.026853008    0.000000000
   3  O       8.00    0.703715112    2.652343999    0.000000000
   4  H       1.00    2.536919528    2.721885921    0.000000000
   5  H       1.00   -3.647001345   -1.886305720    0.000000000
   6  H       1.00   -3.605540754    1.027670861   -1.675298901
   7  H       1.00   -3.605540754    1.027670861    1.675298901
   8  C       6.00    1.026177977   -1.256025366   -2.392015328
   9  C       6.00    1.026177977   -1.256025366    2.392015328
  10  H       1.00    0.337051552   -0.278772398   -4.080731285
  11  H       1.00    0.337051552   -0.278772398    4.080731285
  12  H       1.00    0.448847749   -3.242770030   -2.499729718
  13  H       1.00    0.448847749   -3.242770030    2.499729718
  14  H       1.00    3.100738214   -1.205021658   -2.419454152
  15  H       1.00    3.100738214   -1.205021658    2.419454152

 Bond lengths in Bohr (Angstrom)

 1-2  2.892097881  1-5  2.069933136  1-6  2.069096224  1-7  2.069096224  2-3  2.719106031
     ( 1.530432290)     ( 1.095361444)     ( 1.094918569)     ( 1.094918569)     ( 1.438888946)

  2- 8  2.903104402   2- 9  2.903104402   3- 4  1.834522965   8-10  2.069222119   8-12  2.071730422
       ( 1.536256691)       ( 1.536256691)       ( 0.970787746)       ( 1.094985190)       ( 1.096312526)

  8-14  2.075368508   9-11  2.069222119   9-13  2.071730422   9-15  2.075368508
       ( 1.098237719)       ( 1.094985190)       ( 1.096312526)       ( 1.098237719)

 Bond angles

  1-2-3  104.76902697   1-2-8  110.92255387   1-2-9  110.92255387   2-1-5  110.97328220

  2- 1- 6  110.22090701   2- 1- 7  110.22090701   2- 3- 4  107.25071562   2- 8-10  110.21836376

  2- 8-12  111.57747468   2- 8-14  110.77023896   2- 9-11  110.21836376   2- 9-13  111.57747468

  2- 9-15  110.77023896   3- 2- 8  109.53648747   3- 2- 9  109.53648747   5- 1- 6  108.61190457

  5- 1- 7  108.61190457   6- 1- 7  108.12870271   8- 2- 9  110.96453384  10- 8-12  108.52192632

 10- 8-14  108.08997829  11- 9-13  108.52192632  11- 9-15  108.08997829  12- 8-14  107.54424578

 13- 9-15  107.54424578

 NUCLEAR CHARGE:                   42
 NUMBER OF PRIMITIVE AOS:         195
 NUMBER OF SYMMETRY AOS:          190
 NUMBER OF CONTRACTIONS:          120   ( 120A   )
 NUMBER OF CORE ORBITALS:           5   (   5A   )
 NUMBER OF VALENCE ORBITALS:       30   (  30A   )


 NUCLEAR REPULSION ENERGY  198.77359127


 Eigenvalues of metric

         1 0.176E-02 0.546E-02 0.548E-02 0.123E-01 0.248E-01 0.256E-01 0.256E-01 0.275E-01


 Contracted 2-electron integrals neglected if value below      1.0D-11
 AO integral compression algorithm  1   Integral accuracy      1.0D-11

     101.974 MB (compressed) written to integral file ( 44.9%)


 NUMBER OF SORTED TWO-ELECTRON INTEGRALS:   26357430.     BUFFER LENGTH:  32768
 NUMBER OF SEGMENTS:   2  SEGMENT LENGTH:   15997996      RECORD LENGTH: 524288

 Memory used in sort:      16.56 MW

 SORT1 READ    28411733. AND WROTE    24096425. INTEGRALS IN     70 RECORDS. CPU TIME:     0.42 SEC, REAL TIME:     0.91 SEC
 SORT2 READ    24096425. AND WROTE    26357430. INTEGRALS IN    389 RECORDS. CPU TIME:     0.63 SEC, REAL TIME:     0.84 SEC

 FILE SIZES:   FILE 1:   132.7 MBYTE,  FILE 4:   293.6 MBYTE,   TOTAL:    426.4 MBYTE

 OPERATOR DM      FOR CENTER  0  COORDINATES:    0.000000    0.000000    0.000000


 **********************************************************************************************************************************
 DATASETS  * FILE   NREC   LENGTH (MB)   RECORD NAMES
              1      19      120.44       500      610      700      900      950      970     1000      129      960     1100   
                                          VAR    BASINP    GEOM    SYMINP    ZMAT    AOBASIS   BASIS     P2S    ABASIS      S 
                                         1400     1410     1200     1210     1080     1600     1650     1300     1700   
                                           T        V       H0       H01     AOSYM     SMH    MOLCAS    ERIS     OPER   

 PROGRAMS   *        TOTAL       INT
 CPU TIMES  *         4.33      4.19
 REAL TIME  *         7.53 SEC
 DISK USED  *       426.89 MB      
 **********************************************************************************************************************************

 Density functional group B-P=B88+P86
 Functional: B88(Automatically generated (new) B88)                            Gradient terms: 1
 Functional: P86(Automatically generated (new) P86)                            Gradient terms: 1
 Use grid at  1800.2

 Functional: B88                       Factor:  1.0000
 Functional: P86                       Factor:  1.0000

 Generated new metagrid on record  1800.2 with target accuracy 1.0D-06 and 53396 points in CPU time    1.7
 Computed new grid on record 1800.1 in CPU time    1.9
   99539 words reserved for DFT integration

 PROGRAM * RKS-SCF (Restricted closed shell Kohn-Sham)     Authors: W. Meyer, H.-J. Werner, P.J. Knowles, 1993

 NUMBER OF ELECTRONS:      21+   21-    SPACE SYMMETRY=1    SPIN SYMMETRY: Singlet 
 CONVERGENCE THRESHOLDS:    1.00E-05 (Density)    1.00E-06 (Energy)
 MAX. NUMBER OF ITERATIONS:       60
 INTERPOLATION TYPE:            DIIS
 INTERPOLATION STEPS:              2 (START)      1 (STEP)
 LEVEL SHIFTS:                  0.00 (CLOSED)  0.00 (OPEN) 



 Use fine grid record 1800.2 for energy threshold  1.0D-06
 Orbital guess generated from atomic densities. Full valence occupancy:   21

 Molecular orbital dump at record        2100.2

 Initial occupancy:  21

 ITERATION    DDIFF          GRAD             ENERGY        2-EL.EN.            DIPOLE MOMENTS         DIIS   ORB.
    1      0.000D+00      0.000D+00      -233.20995175    639.571187    0.70802   -0.80093    0.00000    0    start
    2      0.000D+00      0.116D-01      -232.82787503    594.649157   -0.34763    0.38922   -0.00000    1    diag
    3      0.309D-01      0.175D-01      -233.50077562    623.049070    0.42464   -0.58272    0.00000    2    diag
    4      0.222D-01      0.159D-02      -233.50416883    621.788541    0.35504   -0.35261    0.00000    3    diag
    5      0.207D-02      0.799D-03      -233.50527648    621.739431    0.35698   -0.44019    0.00000    4    diag
    6      0.753D-03      0.176D-03      -233.50532285    621.835109    0.36095   -0.42448    0.00000    5    diag
    7      0.192D-03      0.743D-04      -233.50533247    621.813236    0.36187   -0.42574    0.00000    6    diag
    8      0.581D-04      0.748D-05      -233.50533259    621.822916    0.36123   -0.42746    0.00000    7    diag
    9      0.998D-05      0.195D-05      -233.50533259    621.822813    0.36171   -0.42645    0.00000    0    orth

 Final occupancy:  21

 !RKS STATE 1.1 Energy               -233.505332593522
 Nuclear energy                       198.77359127
 One-electron energy                 -709.18307954
 Two-electron energy                  310.91140654
 Density functional                   -34.00725087     B88=-32.49849803 P86= -1.50875284
 Virial quotient                       -1.01151649
 !RKS STATE 1.1 Dipole moment           0.36170679    -0.42644643     0.00000000
 Dipole moment /Debye                   0.91930673    -1.08384771     0.00000000

 Orbital energies:

         1.1          2.1          3.1          4.1          5.1          6.1          7.1          8.1          9.1         10.1
    -18.762920    -9.963125    -9.902571    -9.902553    -9.897489    -0.912345    -0.706428    -0.618358    -0.617504    -0.507032

        11.1         12.1         13.1         14.1         15.1         16.1         17.1         18.1         19.1         20.1
     -0.436120    -0.401400    -0.399729    -0.362709    -0.351146    -0.334769    -0.322401    -0.308462    -0.304006    -0.272324

        21.1         22.1         23.1
     -0.215889     0.022975     0.069100

 HOMO     21.1    -0.215889 =      -5.8746eV
 LUMO     22.1     0.022975 =       0.6252eV
 LUMO-HOMO         0.238864 =       6.4998eV


 **********************************************************************************************************************************
 DATASETS  * FILE   NREC   LENGTH (MB)   RECORD NAMES
              1      20      122.15       500      610      700      900      950      970     1000      129      960     1100   
                                          VAR    BASINP    GEOM    SYMINP    ZMAT    AOBASIS   BASIS     P2S    ABASIS      S 
                                         1400     1410     1200     1210     1080     1600     1650     1300     1700     1800   
                                           T        V       H0       H01     AOSYM     SMH    MOLCAS    ERIS     OPER     GRID   

              2       5        3.30       700     1000      520     1800     2100   
                                         GEOM     BASIS   MCVARS    GRID      RKS  

 PROGRAMS   *        TOTAL        KS       INT
 CPU TIMES  *        18.25     13.92      4.19
 REAL TIME  *        23.10 SEC
 DISK USED  *       426.89 MB      
 **********************************************************************************************************************************


 PROGRAM * Intrinsic Basis Bonding Analysis (IBBA)          Author: G. Knizia

 Molecular orbitals read from record     2100.2  Type=RKS/CANONICAL (state 1.1)
 Fock matrix read from record            2100.2  Type=RKS/TOTAL (state 1.1)
 Orbital energies read from record       2100.2  Type=RKS/CANONICAL (state 1.1)
 Density matrix read from record         2100.2  Type=RKS/CHARGE (state 1.1)

 Number of core orbitals:           5 (   5 )
 Number of closed-shell orbitals:  16 (  16 )

 Basis set MINAO-AUTO-PP generated.      Number of basis functions:   35 

 Polarized AO type:                A = (O Ot + (1-O)(1-Ot)) P12
 Orthogonalization method:         Symmetric (Loewdin)
 Localization functional:          L = sum[A,i] <i|n_A|i>^4 -> max

 Localization group 1:  21 orbitals, occupancy  2.000
 Iterative localization: IB/PM,    7 iter; Final gradient 0.30E-08

 Bond order analysis:       [THRPRINT= 0.020]

   CEN ATOM   CEN ATOM     WIBERG.BO      RENORM.BO
     1   C  -   2   C       0.994588       0.991682
     1   C  -   5   H       0.962724       0.986164
     1   C  -   6   H       0.958080       0.980487
     1   C  -   7   H       0.958080       0.980487

     2   C  -   1   C       0.994588       0.991682
     2   C  -   9   C       0.993172       0.972263
     2   C  -   8   C       0.993172       0.972263
     2   C  -   3   O       0.945071       0.949149

     3   O  -   2   C       0.945071       0.949149
     3   O  -   4   H       0.872681       0.975159
     3   O  -   8   C       0.030599       0.015698
     3   O  -   9   C       0.030599       0.015698

     4   H  -   3   O       0.872681       0.975159

     5   H  -   1   C       0.962724       0.986164

     6   H  -   1   C       0.958080       0.980487

     7   H  -   1   C       0.958080       0.980487

     8   C  -   2   C       0.993172       0.972263
     8   C  -  14   H       0.962129       0.981207
     8   C  -  10   H       0.958682       0.980278
     8   C  -  12   H       0.958038       0.979615
     8   C  -   3   O       0.030599       0.015698

     9   C  -   2   C       0.993172       0.972263
     9   C  -  15   H       0.962129       0.981207
     9   C  -  11   H       0.958682       0.980278
     9   C  -  13   H       0.958038       0.979615
     9   C  -   3   O       0.030599       0.015698

    10   H  -   8   C       0.958682       0.980278

    11   H  -   9   C       0.958682       0.980278

    12   H  -   8   C       0.958038       0.979615

    13   H  -   9   C       0.958038       0.979615

    14   H  -   8   C       0.962129       0.981207

    15   H  -   9   C       0.962129       0.981207


 Valency analysis:

   CEN ATOM   TOT.VALENCE
     1   C       3.937968
     2   C       3.937993
     3   O       1.952454
     4   H       0.893150
     5   H       0.982932
     6   H       0.980511
     7   H       0.980511
     8   C       3.940453
     9   C       3.940453
    10   H       0.980607
    11   H       0.980607
    12   H       0.982185
    13   H       0.982185
    14   H       0.984506
    15   H       0.984506

 Total charge composition:

   CEN ATOM         s          p       ELECTRONS ->P.CHARGE
     1   C       3.02620    3.37858      6.40478   -0.40478
     2   C       2.92363    2.83224      5.75587    0.24413
     3   O       3.63634    4.89651      8.53286   -0.53286
     4   H       0.67312                 0.67312    0.32688
     5   H       0.86936                 0.86936    0.13064
     6   H       0.86040                 0.86040    0.13960
     7   H       0.86040                 0.86040    0.13960
     8   C       3.03290    3.38592      6.41882   -0.41882
     9   C       3.03290    3.38592      6.41882   -0.41882
    10   H       0.86074                 0.86074    0.13926
    11   H       0.86074                 0.86074    0.13926
    12   H       0.86653                 0.86653    0.13347
    13   H       0.86653                 0.86653    0.13347
    14   H       0.87553                 0.87553    0.12447
    15   H       0.87553                 0.87553    0.12447

 Total charge composition, AO contributions:

   CEN ATOM SHL      SPHERICAL COMPONENTS
     1   C  1s       1.99117
     1   C  2s       1.03503
     1   C  2p       1.04645    1.15996    1.17217

     2   C  1s       1.99282
     2   C  2s       0.93082
     2   C  2p       1.01350    0.80400    1.01474

     3   O  1s       1.99715
     3   O  2s       1.63919
     3   O  2p       1.46322    1.48239    1.95090

     4   H  1s       0.67312

     5   H  1s       0.86936

     6   H  1s       0.86040

     7   H  1s       0.86040

     8   C  1s       1.99127
     8   C  2s       1.04163
     8   C  2p       1.14291    1.14400    1.09901

     9   C  1s       1.99127
     9   C  2s       1.04163
     9   C  2p       1.14291    1.14400    1.09901

    10   H  1s       0.86074

    11   H  1s       0.86074

    12   H  1s       0.86653

    13   H  1s       0.86653

    14   H  1s       0.87553

    15   H  1s       0.87553

 Summary of localized orbital composition:   [THRPRINT= 0.020]

   ORB  GRP  ORB.ENERGY      CENTERS/CHARGES
     1   1   -18.615479      O  3   2.000
     2   1    -9.874126      C  2   2.000
     3   1    -9.791311      C  8   2.000
     4   1    -9.791311      C  9   2.000
     5   1    -9.785464      C  1   2.000
     6   1    -0.687951      O  3   1.329   H  4   0.661
     7   1    -0.652839      O  3   1.269   C  2   0.713
     8   1    -0.517359      C  9   1.009   C  2   0.975
     9   1    -0.517359      C  8   1.009   C  2   0.975
    10   1    -0.516850      C  1   0.991   C  2   0.983   (other: 0.025)
    11   1    -0.480473      O  3   1.980   (other: 0.020)
    12   1    -0.451762      C  8   1.129   H 12   0.856
    13   1    -0.451762      C  9   1.129   H 13   0.856
    14   1    -0.450970      C  9   1.120   H 15   0.868
    15   1    -0.450970      C  8   1.120   H 14   0.868
    16   1    -0.447595      C  1   1.124   H  5   0.862
    17   1    -0.446062      C  9   1.137   H 11   0.852
    18   1    -0.446062      C  8   1.137   H 10   0.852
    19   1    -0.441245      C  1   1.136   H  7   0.852
    20   1    -0.441245      C  1   1.136   H  6   0.852
    21   1    -0.241089      O  3   1.951   (other: 0.049)

 Localized orbitals saved to record      2100.2  (orbital set 2)


 **********************************************************************************************************************************
 DATASETS  * FILE   NREC   LENGTH (MB)   RECORD NAMES
              1      20      122.15       500      610      700      900      950      970     1000      129      960     1100   
                                          VAR    BASINP    GEOM    SYMINP    ZMAT    AOBASIS   BASIS     P2S    ABASIS      S 
                                         1400     1410     1200     1210     1080     1600     1650     1300     1700     1800   
                                           T        V       H0       H01     AOSYM     SMH    MOLCAS    ERIS     OPER     GRID   

              2       5        3.42       700     1000      520     1800     2100   
                                         GEOM     BASIS   MCVARS    GRID      RKS  

 PROGRAMS   *        TOTAL      IBBA        KS       INT
 CPU TIMES  *        18.29      0.04     13.92      4.19
 REAL TIME  *        23.24 SEC
 DISK USED  *       426.89 MB      
 **********************************************************************************************************************************
 Molecular orbitals read from record     2100.2  Type=RKS/LOCAL(IBO)  
 Occupation numbers read from record     2100.2  Type=RKS/LOCAL(IBO)  
 Orbital energies read from record       2100.2  Type=RKS/LOCAL(IBO)  
 Redundancy group numbers read from rec  2100.2  Type=RKS/LOCAL(IBO)  

 IBBA/SVP energy=      0.000000000000

        KS-SCF  
   -233.50533259
 **********************************************************************************************************************************
 Molpro calculation terminated
