
 Primary working directories    : /tmp/sb13343
 Secondary working directories  : /tmp/sb13343
 Wavefunction directory         : /panfs/panasas01/chem/sb13343/wfu/
 Main file repository           : /tmp/sb13343/

 SHA1      : b4a5b34a9e711420743f49e6833241d17c61fb3c
 NAME      : 2099.9.b4a5b34
 ARCHNAME  : linux/x86_64_openmp
 FC        : /cm/shared/languages/GCC-6.1/bin/gfortran
 BLASLIB   : -lblas
 id        : simonbennie

 Nodes     nprocs
 node32-018    1

 Using customized tuning parameters: mindgm=1; mindgv=20; mindgc=4; mindgr=1; noblas=0; minvec=7
 default implementation of scratch files=df  

 memory,500,m
 geomtyp=xyz
 nosym
 noorient
 geometry={
 H         -1.13405        1.76167        0.00000
 C         -1.32915        0.67205        0.00000
 C         -0.06360       -0.12883        0.00000
 C          0.67426       -0.31636        1.28970
 C          0.67426       -0.31636       -1.28970
 H         -1.94006        0.46750        0.88859
 H         -1.94006        0.46750       -0.88859
 H          1.28359        0.56876        1.55544
 H         -0.01165       -0.48291        2.13019
 H          1.36783       -1.16569        1.24157
 H          1.28359        0.56876       -1.55544
 H         -0.01165       -0.48291       -2.13019
 H          1.36783       -1.16569       -1.24157
 }
 basis={ default,svp }
 {uks,B97R,direct;wf,33,1,1}
 {ibba,bonds=1}

 Variables initialized (895), CPU time= 0.00 sec
 Commands  initialized (725), CPU time= 0.01 sec, 591 directives.
 Default parameters read. Elapsed time= 0.61 sec

 Checking input...
 Passed
1


                                         ***  PROGRAM SYSTEM MOLPRO  ***
                                       Copyright, TTI GmbH Stuttgart, 2015
                                    Version 2099.9 linked May 26 2017 16:03:21


 **********************************************************************************************************************************
 LABEL *                                                                                 
  64 bit serial version                                                                  DATE: 08-Jun-17          TIME: 20:36:42  
 **********************************************************************************************************************************

 SHA1:             b4a5b34a9e711420743f49e6833241d17c61fb3c
 **********************************************************************************************************************************
 SETTING GEOMTYP        =    XYZ

 Variable memory set to  500000000 words,  buffer space 

 ZSYMEL=NOSYM

 SETTING BASIS          =    SVP


 Recomputing integrals since basis changed


 Using spherical harmonics

 Library entry H      S def2-SVP             selected for orbital group  1
 Library entry H      P def2-SVP             selected for orbital group  1
 Library entry C      S def2-SVP             selected for orbital group  2
 Library entry C      P def2-SVP             selected for orbital group  2
 Library entry C      D def2-SVP             selected for orbital group  2


 PROGRAM * SEWARD (Integral evaluation for generally contracted gaussian basis sets)     Author: Roland Lindh, 1990

 Geometry written to block  1 of record 700


 Point group  C1  



 ATOMIC COORDINATES

 NR  ATOM    CHARGE       X              Y              Z

   1  H       1.00   -2.143043912    3.329073822    0.000000000
   2  C       6.00   -2.511729478    1.269990442    0.000000000
   3  C       6.00   -0.120186582   -0.243453417    0.000000000
   4  C       6.00    1.274166737   -0.597833757    2.437179783
   5  C       6.00    1.274166737   -0.597833757   -2.437179783
   6  H       1.00   -3.666182065    0.883446963    1.679191737
   7  H       1.00   -3.666182065    0.883446963   -1.679191737
   8  H       1.00    2.425633556    1.074800631    2.939355603
   9  H       1.00   -0.022015309   -0.912567643    4.025475693
  10  H       1.00    2.584824085   -2.202834846    2.346227264
  11  H       1.00    2.425633556    1.074800631   -2.939355603
  12  H       1.00   -0.022015309   -0.912567643   -4.025475693
  13  H       1.00    2.584824085   -2.202834846   -2.346227264

 Bond lengths in Bohr (Angstrom)

 1-2  2.091830159  2-3  2.830192527  2-6  2.074092940  2-7  2.074092940  3-4  2.830132841
     ( 1.106948849)     ( 1.497673388)     ( 1.097562717)     ( 1.097562717)     ( 1.497641803)

  3- 5  2.830132841   4- 8  2.091832255   4- 9  2.074085151   4-10  2.074156104   5-11  2.091832255
       ( 1.497641803)       ( 1.106949959)       ( 1.097558596)       ( 1.097596142)       ( 1.106949959)

  5-12  2.074085151   5-13  2.074156104
       ( 1.097558596)       ( 1.097596142)

 Bond angles

  1-2-3  112.17549786   1-2-6  106.35284965   1-2-7  106.35284965   2-3-4  118.89987932

  2-3-5  118.89987932   3-2-6  111.75744418   3-2-7  111.75744418   3-4-8  112.19808176

  3- 4- 9  111.75014522   3- 4-10  111.74379558   3- 5-11  112.19808176   3- 5-12  111.75014522

  3- 5-13  111.74379558   4- 3- 5  118.89276928   6- 2- 7  108.11431090   8- 4- 9  106.34995457

  8- 4-10  106.34572146   9- 4-10  108.12296896  11- 5-12  106.34995457  11- 5-13  106.34572146

 12- 5-13  108.12296896

 NUCLEAR CHARGE:                   33
 NUMBER OF PRIMITIVE AOS:         163
 NUMBER OF SYMMETRY AOS:          159
 NUMBER OF CONTRACTIONS:          101   ( 101A   )
 NUMBER OF CORE ORBITALS:           4   (   4A   )
 NUMBER OF VALENCE ORBITALS:       25   (  25A   )


 NUCLEAR REPULSION ENERGY  124.92676597


 Eigenvalues of metric

         1 0.371E-02 0.424E-02 0.424E-02 0.242E-01 0.242E-01 0.268E-01 0.277E-01 0.371E-01


 Contracted 2-electron integrals neglected if value below      1.0D-11
 AO integral compression algorithm  1   Integral accuracy      1.0D-11

     53.477 MB (compressed) written to integral file ( 46.4%)


 NUMBER OF SORTED TWO-ELECTRON INTEGRALS:   13268976.     BUFFER LENGTH:  32768
 NUMBER OF SEGMENTS:   1  SEGMENT LENGTH:   13268976      RECORD LENGTH: 524288

 Memory used in sort:      13.83 MW

 SORT1 READ    14422061. AND WROTE    12225547. INTEGRALS IN     35 RECORDS. CPU TIME:     0.17 SEC, REAL TIME:     0.32 SEC
 SORT2 READ    12225547. AND WROTE    13268976. INTEGRALS IN    204 RECORDS. CPU TIME:     0.32 SEC, REAL TIME:     0.40 SEC

 FILE SIZES:   FILE 1:    84.0 MBYTE,  FILE 4:   146.8 MBYTE,   TOTAL:    230.9 MBYTE

 OPERATOR DM      FOR CENTER  0  COORDINATES:    0.000000    0.000000    0.000000


 **********************************************************************************************************************************
 DATASETS  * FILE   NREC   LENGTH (MB)   RECORD NAMES
              1      19       77.16       500      610      700      900      950      970     1000      129      960     1100   
                                          VAR    BASINP    GEOM    SYMINP    ZMAT    AOBASIS   BASIS     P2S    ABASIS      S 
                                         1400     1410     1200     1210     1080     1600     1650     1300     1700   
                                           T        V       H0       H01     AOSYM     SMH    MOLCAS    ERIS     OPER   

 PROGRAMS   *        TOTAL       INT
 CPU TIMES  *         2.15      2.01
 REAL TIME  *         3.56 SEC
 DISK USED  *       231.35 MB      
 **********************************************************************************************************************************

 Density functional group B97R=B97RDF
 Functional: B97RDF(Automatically generated (new) B97RDF)                      Gradient terms: 1
 Use grid at  1800.2


 Exact exchange will be calculated, factor:  0.2100

 Functional: B97RDF                    Factor:  1.0000

 Generated new metagrid on record  1800.2 with target accuracy 1.0D-06 and 45406 points in CPU time    1.3
 Computed new grid on record 1800.1 in CPU time    1.4
   84355 words reserved for DFT integration

 PROGRAM * UKS-SCF (Unrestricted Kohn-Sham)     Authors: W. Meyer, H.-J. Werner, P.J. Knowles, 1993

 NUMBER OF ELECTRONS:      17+   16-    SPACE SYMMETRY=1    SPIN SYMMETRY: Doublet 
 CONVERGENCE THRESHOLDS:    1.00E-05 (Density)    1.00E-06 (Energy)
 MAX. NUMBER OF ITERATIONS:       60
 INTERPOLATION TYPE:            DIIS
 INTERPOLATION STEPS:              2 (START)      1 (STEP)
 LEVEL SHIFTS:                 -0.20 (ALPHA)  -0.20 (BETA) 



 Use fine grid record 1800.2 for energy threshold  1.0D-06
 Orbital guess generated from atomic densities. Full valence occupancy:   17

 Molecular orbital dump at record        2200.2

 Initial alpha occupation  17
 Initial beta  occupation  16

 ITERATION    DDIFF          GRAD             ENERGY        2-EL.EN.            DIPOLE MOMENTS         DIIS
    1      0.000D+00      0.000D+00      -157.46435882    400.631975    0.13228    0.26719    0.00000    0
    2      0.107D-01      0.520D-02      -157.60828494    387.223611    0.05724    0.11572    0.00000    1
    3      0.295D-02      0.182D-02      -157.62360479    389.948995    0.05790    0.11719    0.00000    2
    4      0.126D-02      0.305D-03      -157.62474388    389.790974    0.05092    0.10311    0.00000    3
    5      0.541D-03      0.105D-03      -157.62494182    389.767256    0.04703    0.09526    0.00000    4
    6      0.182D-03      0.474D-04      -157.62497129    389.748687    0.04464    0.09043    0.00000    5
    7      0.670D-04      0.180D-04      -157.62497468    389.752182    0.04466    0.09045    0.00000    6
    8      0.181D-04      0.396D-05      -157.62497490    389.751629    0.04416    0.08943    0.00000    7
    9      0.566D-05      0.114D-05      -157.62497491    389.751511    0.04423    0.08959    0.00000    6
   10      0.312D-05      0.340D-06      -157.62497491    389.751641    0.04421    0.08954    0.00000    7

 Final alpha occupancy:  17
 Final beta  occupancy:  16

 !UKS STATE 1.1 Energy               -157.624974914119
 Nuclear energy                       124.92676597
 One-electron energy                 -457.48590999
 Two-electron energy                  194.87582033
 Density functional                   -19.94165123     B97RDF=-19.94165123
 Virial quotient                       -1.01283991
 !UKS STATE 1.1 Dipole moment           0.04420739     0.08953710     0.00000000
 Dipole moment /Debye                   0.11235662     0.22756570     0.00000000

 Orbital energies for positive spin:

         1.1          2.1          3.1          4.1          5.1          6.1          7.1          8.1          9.1         10.1
    -10.194254   -10.186692   -10.186679   -10.186660    -0.796099    -0.684276    -0.684259    -0.531025    -0.441744    -0.437950

        11.1         12.1         13.1         14.1         15.1         16.1         17.1         18.1         19.1
     -0.437928    -0.383164    -0.383118    -0.364420    -0.343140    -0.343131    -0.169486     0.062932     0.114118

 Orbital energies for negative spin:

         1.1          2.1          3.1          4.1          5.1          6.1          7.1          8.1          9.1         10.1
    -10.187446   -10.187433   -10.187419   -10.183016    -0.778424    -0.681661    -0.681646    -0.512062    -0.433446    -0.433421

        11.1         12.1         13.1         14.1         15.1         16.1         17.1         18.1         19.1
     -0.422453    -0.377406    -0.377363    -0.363423    -0.337652    -0.337646    -0.030715     0.062810     0.113973

 HOMO     17.1    -0.169486 =      -4.6119eV
 LUMO    -17.1    -0.030715 =      -0.8358eV
 LUMO-HOMO         0.138771 =       3.7762eV

 EXPECTATION VALUE OF S**2:             0.75416722

 Occupation number threshold for canonical orbitals:  1.999000 (occupied),  0.001000 (virtual)

 Number of pseudo-canonical orbitals per symmetry:   16
 Number of active natural orbitals per symmetry:      1

 Natural orbitals saved to record    2200.2 (Orbital set 3)

 Orbital spaces for UNO-CAS (Min. occupation: 0.020  Max. occupation: 1.980):

 Closed:       16
 Active:        1


 **********************************************************************************************************************************
 DATASETS  * FILE   NREC   LENGTH (MB)   RECORD NAMES
              1      20       78.61       500      610      700      900      950      970     1000      129      960     1100   
                                          VAR    BASINP    GEOM    SYMINP    ZMAT    AOBASIS   BASIS     P2S    ABASIS      S 
                                         1400     1410     1200     1210     1080     1600     1650     1300     1700     1800   
                                           T        V       H0       H01     AOSYM     SMH    MOLCAS    ERIS     OPER     GRID   

              2       5        3.39       700     1000      520     1800     2200   
                                         GEOM     BASIS   MCVARS    GRID      UKS  

 PROGRAMS   *        TOTAL       UKS       INT
 CPU TIMES  *        17.20     15.05      2.01
 REAL TIME  *        19.78 SEC
 DISK USED  *       231.35 MB      
 **********************************************************************************************************************************


 PROGRAM * Intrinsic Basis Bonding Analysis (IBBA)          Author: G. Knizia

 Molecular orbitals read from record     2200.2  Type=UKS/ALPHA (state 1.1)
 Fock matrix read from record            2200.2  Type=UKS/TOTAL (state 1.1)
 Orbital energies read from record       2200.2  Type=UKS/ALPHA (state 1.1)
 Density matrix read from record         2200.2  Type=UKS/CHARGE (state 1.1)

 Number of core orbitals:           4 (   4 )
 Number of closed-shell orbitals:  12 (  12 )
 Number of active  orbitals:        1 (   1 )

 Basis set MINAO-AUTO-PP generated.      Number of basis functions:   29 

 Polarized AO type:                A = (O Ot + (1-O)(1-Ot)) P12
 Orthogonalization method:         Symmetric (Loewdin)
 Localization functional:          L = sum[A,i] <i|n_A|i>^4 -> max

 Localization group 1:  16 orbitals, occupancy  2.000
 Iterative localization: IB/PM,    8 iter; Final gradient 0.57E-09

 Bond order analysis:       [THRPRINT= 0.020]

   CEN ATOM   CEN ATOM     WIBERG.BO      RENORM.BO
     1   H  -   2   C       0.882759       0.995876
     1   H  -   3   C       0.053055       0.173183

     2   C  -   3   C       1.129773       1.306201
     2   C  -   6   H       0.949135       0.987179
     2   C  -   7   H       0.949135       0.987179
     2   C  -   1   H       0.882759       0.995876

     3   C  -   2   C       1.129773       1.306201
     3   C  -   5   C       1.129737       1.306122
     3   C  -   4   C       1.129737       1.306122
     3   C  -   1   H       0.053055       0.173183
     3   C  -  11   H       0.053018       0.173053
     3   C  -   8   H       0.053018       0.173053

     4   C  -   3   C       1.129737       1.306122
     4   C  -   9   H       0.949197       0.987176
     4   C  -  10   H       0.949055       0.987192
     4   C  -   8   H       0.882816       0.995871

     5   C  -   3   C       1.129737       1.306122
     5   C  -  12   H       0.949197       0.987176
     5   C  -  13   H       0.949055       0.987192
     5   C  -  11   H       0.882816       0.995871

     6   H  -   2   C       0.949135       0.987179

     7   H  -   2   C       0.949135       0.987179

     8   H  -   4   C       0.882816       0.995871
     8   H  -   3   C       0.053018       0.173053

     9   H  -   4   C       0.949197       0.987176

    10   H  -   4   C       0.949055       0.987192

    11   H  -   5   C       0.882816       0.995871
    11   H  -   3   C       0.053018       0.173053

    12   H  -   5   C       0.949197       0.987176

    13   H  -   5   C       0.949055       0.987192


 Valency analysis:

   CEN ATOM   TOT.VALENCE
     1   H       0.963671
     2   C       3.952258
     3   C       3.610438
     4   C       3.952249
     5   C       3.952249
     6   H       0.979778
     7   H       0.979778
     8   H       0.963682
     9   H       0.979792
    10   H       0.979760
    11   H       0.963682
    12   H       0.979792
    13   H       0.979760
 Localization group 2:   1 orbitals, occupancy  1.000
 Iterative localization: IB/PM,    1 iter; Final gradient 0.00E+00

 Bond order analysis:       [THRPRINT= 0.020]

   CEN ATOM   CEN ATOM     WIBERG.BO      RENORM.BO
     1   H  -   3   C       0.090971       0.500000


     3   C  -   1   H       0.090971       0.500000
     3   C  -  11   H       0.090935       0.500000
     3   C  -   8   H       0.090935       0.500000





     8   H  -   3   C       0.090935       0.500000



    11   H  -   3   C       0.090935       0.500000




 Valency analysis:

   CEN ATOM   TOT.VALENCE
     1   H       0.117805
     2   C       0.014739
     3   C       0.399932
     4   C       0.014718
     5   C       0.014718
     6   H       0.021606
     7   H       0.021606
     8   H       0.117761
     9   H       0.021526
    10   H       0.021707
    11   H       0.117761
    12   H       0.021526
    13   H       0.021707

 Total charge composition:

   CEN ATOM         s          p       ELECTRONS ->P.CHARGE
     1   H       0.87225                 0.87225    0.12775
     2   C       3.00750    3.33351      6.34101   -0.34101
     3   C       3.00915    3.13875      6.14790   -0.14790
     4   C       3.00749    3.33352      6.34101   -0.34101
     5   C       3.00749    3.33352      6.34101   -0.34101
     6   H       0.86872                 0.86872    0.13128
     7   H       0.86872                 0.86872    0.13128
     8   H       0.87225                 0.87225    0.12775
     9   H       0.86873                 0.86873    0.13127
    10   H       0.86871                 0.86871    0.13129
    11   H       0.87225                 0.87225    0.12775
    12   H       0.86873                 0.86873    0.13127
    13   H       0.86871                 0.86871    0.13129

 Total charge composition, AO contributions:

   CEN ATOM SHL      SPHERICAL COMPONENTS
     1   H  1s       0.87225

     2   C  1s       1.99078
     2   C  2s       1.01672
     2   C  2p       1.07713    1.09949    1.15689

     3   C  1s       1.99240
     3   C  2s       1.01675
     3   C  2p       1.03719    1.07731    1.02425

     4   C  1s       1.99078
     4   C  2s       1.01670
     4   C  2p       1.12357    1.13285    1.07711

     5   C  1s       1.99078
     5   C  2s       1.01670
     5   C  2p       1.12357    1.13285    1.07711

     6   H  1s       0.86872

     7   H  1s       0.86872

     8   H  1s       0.87225

     9   H  1s       0.86873

    10   H  1s       0.86871

    11   H  1s       0.87225

    12   H  1s       0.86873

    13   H  1s       0.86871

 Active orbital charges:

   CEN ATOM         s          p       ELECTRONS ->SPIN.DEN
     1   H       0.06285                 0.06285    0.06285
     2   C       0.00028    0.00714      0.00742    0.00742
     3   C       0.01060    0.71308      0.72368    0.72368
     4   C       0.00028    0.00713      0.00741    0.00741
     5   C       0.00028    0.00713      0.00741    0.00741
     6   H       0.01092                 0.01092    0.01092
     7   H       0.01092                 0.01092    0.01092
     8   H       0.06283                 0.06283    0.06283
     9   H       0.01088                 0.01088    0.01088
    10   H       0.01097                 0.01097    0.01097
    11   H       0.06283                 0.06283    0.06283
    12   H       0.01088                 0.01088    0.01088
    13   H       0.01097                 0.01097    0.01097

 Active orbital charges, AO contributions:

   CEN ATOM SHL      SPHERICAL COMPONENTS
     1   H  1s       0.06285

     2   C  1s       0.00000
     2   C  2s       0.00028
     2   C  2p       0.00017    0.00698    0.00000

     3   C  1s       0.00002
     3   C  2s       0.01058
     3   C  2p       0.13957    0.57352    0.00000

     4   C  1s       0.00000
     4   C  2s       0.00028
     4   C  2p       0.00221    0.00445    0.00048

     5   C  1s       0.00000
     5   C  2s       0.00028
     5   C  2p       0.00221    0.00445    0.00048

     6   H  1s       0.01092

     7   H  1s       0.01092

     8   H  1s       0.06283

     9   H  1s       0.01088

    10   H  1s       0.01097

    11   H  1s       0.06283

    12   H  1s       0.01088

    13   H  1s       0.01097

 Summary of localized orbital composition:   [THRPRINT= 0.020]

   ORB  GRP  ORB.ENERGY      CENTERS/CHARGES
     1   1   -10.090386      C  3   2.000
     2   1   -10.072029      C  2   2.000
     3   1   -10.072014      C  4   2.000
     4   1   -10.072014      C  5   2.000
     5   1    -0.590792      C  3   1.007   C  4   0.981
     6   1    -0.590792      C  3   1.007   C  5   0.981
     7   1    -0.590781      C  3   1.007   C  2   0.981
     8   1    -0.497635      C  2   1.098   H  1   0.802   C  3   0.093
     9   1    -0.497629      C  4   1.098   H  8   0.802   C  3   0.093
    10   1    -0.497629      C  5   1.098   H 11   0.802   C  3   0.093
    11   1    -0.492703      C  2   1.123   H  6   0.851   C  3   0.021
    12   1    -0.492703      C  2   1.123   H  7   0.851   C  3   0.021
    13   1    -0.492699      C  5   1.123   H 12   0.851   C  3   0.021
    14   1    -0.492699      C  4   1.123   H  9   0.851   C  3   0.021
    15   1    -0.492663      C  5   1.123   H 13   0.851   C  3   0.021
    16   1    -0.492663      C  4   1.123   H 10   0.851   C  3   0.021
    17   2    -0.099134      C  3   0.724   H  1   0.063   H 11   0.063   H  8   0.063   (other: 0.088)

 Localized orbitals saved to record      2200.2  (orbital set 4)


 **********************************************************************************************************************************
 DATASETS  * FILE   NREC   LENGTH (MB)   RECORD NAMES
              1      20       78.61       500      610      700      900      950      970     1000      129      960     1100   
                                          VAR    BASINP    GEOM    SYMINP    ZMAT    AOBASIS   BASIS     P2S    ABASIS      S 
                                         1400     1410     1200     1210     1080     1600     1650     1300     1700     1800   
                                           T        V       H0       H01     AOSYM     SMH    MOLCAS    ERIS     OPER     GRID   

              2       5        3.47       700     1000      520     1800     2200   
                                         GEOM     BASIS   MCVARS    GRID      UKS  

 PROGRAMS   *        TOTAL      IBBA       UKS       INT
 CPU TIMES  *        17.24      0.03     15.05      2.01
 REAL TIME  *        19.89 SEC
 DISK USED  *       231.35 MB      
 **********************************************************************************************************************************
 Molecular orbitals read from record     2200.2  Type=UKS/LOCAL(IBO)  
 Occupation numbers read from record     2200.2  Type=UKS/LOCAL(IBO)  
 Orbital energies read from record       2200.2  Type=UKS/LOCAL(IBO)  
 Redundancy group numbers read from rec  2200.2  Type=UKS/BETA (state 1.1)

 IBBA/SVP energy=      0.000000000000

        UKS-SCF 
   -157.62497491
 **********************************************************************************************************************************
 Molpro calculation terminated
