
 Primary working directories    : /tmp/sb13343
 Secondary working directories  : /tmp/sb13343
 Wavefunction directory         : /panfs/panasas01/chem/sb13343/wfu/
 Main file repository           : /tmp/sb13343/

 SHA1      : b4a5b34a9e711420743f49e6833241d17c61fb3c
 NAME      : 2099.9.b4a5b34
 ARCHNAME  : linux/x86_64_openmp
 FC        : /cm/shared/languages/GCC-6.1/bin/gfortran
 BLASLIB   : -lblas
 id        : simonbennie

 Nodes     nprocs
 node32-028    1

 Using customized tuning parameters: mindgm=1; mindgv=20; mindgc=4; mindgr=1; noblas=0; minvec=7
 default implementation of scratch files=df  

 memory,500,m
 geomtyp=xyz
 nosym
 noorient
 geometry={
 H         -1.13405        1.76167        0.00000
 C         -1.32915        0.67205        0.00000
 C         -0.06360       -0.12883        0.00000
 C          0.67426       -0.31636        1.28970
 C          0.67426       -0.31636       -1.28970
 H         -1.94006        0.46750        0.88859
 H         -1.94006        0.46750       -0.88859
 H          1.28359        0.56876        1.55544
 H         -0.01165       -0.48291        2.13019
 H          1.36783       -1.16569        1.24157
 H          1.28359        0.56876       -1.55544
 H         -0.01165       -0.48291       -2.13019
 H          1.36783       -1.16569       -1.24157
 }
 basis={ default,sto-3g }
 {ks,M08-SO,direct;wf,33,1,1}
 {ibba,bonds=1}

 Variables initialized (895), CPU time= 0.00 sec
 Commands  initialized (725), CPU time= 0.01 sec, 591 directives.
 Default parameters read. Elapsed time= 0.08 sec

 Checking input...
 Passed
1


                                         ***  PROGRAM SYSTEM MOLPRO  ***
                                       Copyright, TTI GmbH Stuttgart, 2015
                                    Version 2099.9 linked May 26 2017 16:03:21


 **********************************************************************************************************************************
 LABEL *                                                                                 
  64 bit serial version                                                                  DATE: 08-Jun-17          TIME: 20:29:45  
 **********************************************************************************************************************************

 SHA1:             b4a5b34a9e711420743f49e6833241d17c61fb3c
 **********************************************************************************************************************************
 SETTING GEOMTYP        =    XYZ

 Variable memory set to  500000000 words,  buffer space 

 ZSYMEL=NOSYM

 SETTING BASIS          =    STO-3G


 Recomputing integrals since basis changed


 Using spherical harmonics

 Library entry H      S STO-3G               selected for orbital group  1
 Library entry C      S STO-3G               selected for orbital group  2
 Library entry C      P STO-3G               selected for orbital group  2


 PROGRAM * SEWARD (Integral evaluation for generally contracted gaussian basis sets)     Author: Roland Lindh, 1990

 Geometry written to block  1 of record 700


 Point group  C1  



 ATOMIC COORDINATES

 NR  ATOM    CHARGE       X              Y              Z

   1  H       1.00   -2.143043912    3.329073822    0.000000000
   2  C       6.00   -2.511729478    1.269990442    0.000000000
   3  C       6.00   -0.120186582   -0.243453417    0.000000000
   4  C       6.00    1.274166737   -0.597833757    2.437179783
   5  C       6.00    1.274166737   -0.597833757   -2.437179783
   6  H       1.00   -3.666182065    0.883446963    1.679191737
   7  H       1.00   -3.666182065    0.883446963   -1.679191737
   8  H       1.00    2.425633556    1.074800631    2.939355603
   9  H       1.00   -0.022015309   -0.912567643    4.025475693
  10  H       1.00    2.584824085   -2.202834846    2.346227264
  11  H       1.00    2.425633556    1.074800631   -2.939355603
  12  H       1.00   -0.022015309   -0.912567643   -4.025475693
  13  H       1.00    2.584824085   -2.202834846   -2.346227264

 Bond lengths in Bohr (Angstrom)

 1-2  2.091830159  2-3  2.830192527  2-6  2.074092940  2-7  2.074092940  3-4  2.830132841
     ( 1.106948849)     ( 1.497673388)     ( 1.097562717)     ( 1.097562717)     ( 1.497641803)

  3- 5  2.830132841   4- 8  2.091832255   4- 9  2.074085151   4-10  2.074156104   5-11  2.091832255
       ( 1.497641803)       ( 1.106949959)       ( 1.097558596)       ( 1.097596142)       ( 1.106949959)

  5-12  2.074085151   5-13  2.074156104
       ( 1.097558596)       ( 1.097596142)

 Bond angles

  1-2-3  112.17549786   1-2-6  106.35284965   1-2-7  106.35284965   2-3-4  118.89987932

  2-3-5  118.89987932   3-2-6  111.75744418   3-2-7  111.75744418   3-4-8  112.19808176

  3- 4- 9  111.75014522   3- 4-10  111.74379558   3- 5-11  112.19808176   3- 5-12  111.75014522

  3- 5-13  111.74379558   4- 3- 5  118.89276928   6- 2- 7  108.11431090   8- 4- 9  106.34995457

  8- 4-10  106.34572146   9- 4-10  108.12296896  11- 5-12  106.34995457  11- 5-13  106.34572146

 12- 5-13  108.12296896

 NUCLEAR CHARGE:                   33
 NUMBER OF PRIMITIVE AOS:          87
 NUMBER OF SYMMETRY AOS:           87
 NUMBER OF CONTRACTIONS:           29   (  29A   )
 NUMBER OF CORE ORBITALS:           4   (   4A   )
 NUMBER OF VALENCE ORBITALS:       25   (  25A   )


 NUCLEAR REPULSION ENERGY  124.92676597


 Eigenvalues of metric

         1 0.210E+00 0.225E+00 0.225E+00 0.315E+00 0.353E+00 0.353E+00 0.362E+00 0.372E+00


 Contracted 2-electron integrals neglected if value below      1.0D-11
 AO integral compression algorithm  1   Integral accuracy      1.0D-11

     0.786 MB (compressed) written to integral file (100.0%)


 NUMBER OF SORTED TWO-ELECTRON INTEGRALS:      94830.     BUFFER LENGTH:  32768
 NUMBER OF SEGMENTS:   1  SEGMENT LENGTH:      94830      RECORD LENGTH: 524288

 Memory used in sort:       0.65 MW

 SORT1 READ      108770. AND WROTE       91348. INTEGRALS IN      1 RECORDS. CPU TIME:     0.00 SEC, REAL TIME:     0.01 SEC
 SORT2 READ       91348. AND WROTE       94830. INTEGRALS IN      3 RECORDS. CPU TIME:     0.01 SEC, REAL TIME:     0.01 SEC

 FILE SIZES:   FILE 1:    31.0 MBYTE,  FILE 4:     4.2 MBYTE,   TOTAL:     35.2 MBYTE

 OPERATOR DM      FOR CENTER  0  COORDINATES:    0.000000    0.000000    0.000000


 **********************************************************************************************************************************
 DATASETS  * FILE   NREC   LENGTH (MB)   RECORD NAMES
              1      19       30.62       500      610      700      900      950      970     1000      129      960     1100   
                                          VAR    BASINP    GEOM    SYMINP    ZMAT    AOBASIS   BASIS     P2S    ABASIS      S 
                                         1400     1410     1200     1210     1080     1600     1650     1300     1700   
                                           T        V       H0       H01     AOSYM     SMH    MOLCAS    ERIS     OPER   

 PROGRAMS   *        TOTAL       INT
 CPU TIMES  *         0.48      0.33
 REAL TIME  *         0.76 SEC
 DISK USED  *        35.68 MB      
 **********************************************************************************************************************************

 Density functional group M08-SO=XC-M08-SO
 Functional: XC-M08-SO(via MFM 1.6)                                            Gradient terms: 1
 Use grid at  1800.2


 Exact exchange will be calculated, factor:  0.5679

 Functional: XC-M08-SO                 Factor:  1.0000

 Generated new metagrid on record  1800.2 with target accuracy 1.0D-06 and 45406 points in CPU time    1.3
 Computed new grid on record 1800.1 in CPU time    1.4
   27459 words reserved for DFT integration

 PROGRAM * RKS-SCF (Restricted open shell Kohn-Sham)     Authors: W. Meyer, H.-J. Werner, P.J. Knowles, 1993

 NUMBER OF ELECTRONS:      17+   16-    SPACE SYMMETRY=1    SPIN SYMMETRY: Doublet 
 CONVERGENCE THRESHOLDS:    1.00E-05 (Density)    1.00E-06 (Energy)
 MAX. NUMBER OF ITERATIONS:       60
 INTERPOLATION TYPE:            DIIS
 INTERPOLATION STEPS:              2 (START)      1 (STEP)
 LEVEL SHIFTS:                 -0.60 (CLOSED) -0.30 (OPEN) 



 Use fine grid record 1800.2 for energy threshold  1.0D-06
 Orbital guess generated from atomic densities. Full valence occupancy:   17

 Molecular orbital dump at record        2100.2

 Initial alpha occupancy:  17
 Initial beta  occupancy:  16
 Wave function symmetry:    1

 ITERATION    DDIFF          GRAD             ENERGY        2-EL.EN.            DIPOLE MOMENTS         DIIS   ORB.
    1      0.000D+00      0.000D+00      -155.52394727    383.796984    0.18826    0.38078   -0.00000    0    start
    2      0.000D+00      0.247D-01      -155.73002818    374.314984    0.03712    0.07484   -0.00000    1    diag,B
    3      0.431D-01      0.237D-02      -155.73350982    373.904917    0.03564    0.07299   -0.00000    2    diag,B
    4      0.349D-02      0.914D-03      -155.73447930    373.876734    0.03496    0.07285   -0.00000    3    diag,B
    5      0.211D-02      0.266D-03      -155.73459190    373.865666    0.03365    0.07082   -0.00000    4    diag,B
    6      0.791D-03      0.568D-04      -155.73459614    373.865154    0.03300    0.06968   -0.00000    5    diag,B
    7      0.131D-03      0.138D-04      -155.73459638    373.865031    0.03291    0.06955   -0.00000    6    fixocc
    8      0.378D-04      0.308D-05      -155.73459639    373.865048    0.03293    0.06961   -0.00000    7    diag,B
    9      0.961D-05      0.586D-06      -155.73459639    373.865049    0.03293    0.06959   -0.00000    0    orth

 Final alpha occupancy:  17
 Final beta  occupancy:  16

 !RKS STATE 1.1 Energy               -155.734596391240
 Nuclear energy                       124.92676597
 One-electron energy                 -456.30838626
 Two-electron energy                  186.93252435
 Density functional                   -11.28550045     XC-M08-SO=-11.28550045
 Virial quotient                       -1.01502233
 !RKS STATE 1.1 Dipole moment           0.03292582     0.06959055    -0.00000000
 Dipole moment /Debye                   0.08368362     0.17686995    -0.00000000

 Orbital energies:

         1.1          2.1          3.1          4.1          5.1          6.1          7.1          8.1          9.1         10.1
    -10.307362   -10.307343   -10.307285   -10.279706    -0.843485    -0.736231    -0.736166    -0.560748    -0.466441    -0.466379

        11.1         12.1         13.1         14.1         15.1         16.1         17.1         18.1         19.1
     -0.458970    -0.410484    -0.410070    -0.394079    -0.356345    -0.356197    -0.163943     0.449821     0.450718

 HOMO     17.1    -0.163943 =      -4.4611eV
 LUMO     18.1     0.449821 =      12.2402eV
 LUMO-HOMO         0.613763 =      16.7013eV


 **********************************************************************************************************************************
 DATASETS  * FILE   NREC   LENGTH (MB)   RECORD NAMES
              1      20       32.07       500      610      700      900      950      970     1000      129      960     1100   
                                          VAR    BASINP    GEOM    SYMINP    ZMAT    AOBASIS   BASIS     P2S    ABASIS      S 
                                         1400     1410     1200     1210     1080     1600     1650     1300     1700     1800   
                                           T        V       H0       H01     AOSYM     SMH    MOLCAS    ERIS     OPER     GRID   

              2       5        2.99       700     1000      520     1800     2100   
                                         GEOM     BASIS   MCVARS    GRID      RKS  

 PROGRAMS   *        TOTAL        KS       INT
 CPU TIMES  *         7.52      7.04      0.33
 REAL TIME  *         8.08 SEC
 DISK USED  *        35.68 MB      
 **********************************************************************************************************************************


 PROGRAM * Intrinsic Basis Bonding Analysis (IBBA)          Author: G. Knizia

 Molecular orbitals read from record     2100.2  Type=RKS/CANONICAL (state 1.1)
 Fock matrix read from record            2100.2  Type=RKS/TOTAL (state 1.1)
 Orbital energies read from record       2100.2  Type=RKS/CANONICAL (state 1.1)
 Density matrix read from record         2100.2  Type=RKS/CHARGE (state 1.1)

 Number of core orbitals:           4 (   4 )
 Number of closed-shell orbitals:  12 (  12 )
 Number of active  orbitals:        1 (   1 )

 Basis set MINAO-AUTO-PP generated.      Number of basis functions:   29 

 Polarized AO type:                A = (O Ot + (1-O)(1-Ot)) P12
 Orthogonalization method:         Symmetric (Loewdin)
 Localization functional:          L = sum[A,i] <i|n_A|i>^4 -> max

 Localization group 1:  16 orbitals, occupancy  2.000
 Iterative localization: IB/PM,    7 iter; Final gradient 0.14E-08

 Bond order analysis:       [THRPRINT= 0.020]

   CEN ATOM   CEN ATOM     WIBERG.BO      RENORM.BO
     1   H  -   2   C       0.938385       0.998933
     1   H  -   3   C       0.026653       0.208726

     2   C  -   3   C       1.050845       1.322261
     2   C  -   7   H       0.960798       0.991063
     2   C  -   6   H       0.960798       0.991063
     2   C  -   1   H       0.938385       0.998933

     3   C  -   2   C       1.050845       1.322261
     3   C  -   5   C       1.050579       1.321236
     3   C  -   4   C       1.050579       1.321236
     3   C  -  11   H       0.026725       0.209269
     3   C  -   8   H       0.026725       0.209269
     3   C  -   1   H       0.026653       0.208726

     4   C  -   3   C       1.050579       1.321236
     4   C  -   9   H       0.960917       0.991118
     4   C  -  10   H       0.960881       0.991087
     4   C  -   8   H       0.938604       0.998937

     5   C  -   3   C       1.050579       1.321236
     5   C  -  12   H       0.960917       0.991118
     5   C  -  13   H       0.960881       0.991087
     5   C  -  11   H       0.938604       0.998937

     6   H  -   2   C       0.960798       0.991063

     7   H  -   2   C       0.960798       0.991063

     8   H  -   4   C       0.938604       0.998937
     8   H  -   3   C       0.026725       0.209269

     9   H  -   4   C       0.960917       0.991118

    10   H  -   4   C       0.960881       0.991087

    11   H  -   5   C       0.938604       0.998937
    11   H  -   3   C       0.026725       0.209269

    12   H  -   5   C       0.960917       0.991118

    13   H  -   5   C       0.960881       0.991087


 Valency analysis:

   CEN ATOM   TOT.VALENCE
     1   H       0.974676
     2   C       3.934811
     3   C       3.268217
     4   C       3.934957
     5   C       3.934957
     6   H       0.981552
     7   H       0.981552
     8   H       0.974917
     9   H       0.981545
    10   H       0.981496
    11   H       0.974917
    12   H       0.981545
    13   H       0.981496
 Localization group 2:   1 orbitals, occupancy  1.000
 Iterative localization: IB/PM,    1 iter; Final gradient 0.00E+00

 Bond order analysis:       [THRPRINT= 0.020]

   CEN ATOM   CEN ATOM     WIBERG.BO      RENORM.BO
     1   H  -   3   C       0.055814       0.500000


     3   C  -  11   H       0.056270       0.500000
     3   C  -   8   H       0.056270       0.500000
     3   C  -   1   H       0.055814       0.500000





     8   H  -   3   C       0.056270       0.500000



    11   H  -   3   C       0.056270       0.500000




 Valency analysis:

   CEN ATOM   TOT.VALENCE
     1   H       0.063022
     2   C       0.003529
     3   C       0.245413
     4   C       0.003670
     5   C       0.003670
     6   H       0.013113
     7   H       0.013113
     8   H       0.063519
     9   H       0.013050
    10   H       0.013102
    11   H       0.063519
    12   H       0.013050
    13   H       0.013102

 Total charge composition:

   CEN ATOM         s          p       ELECTRONS ->P.CHARGE
     1   H       0.87344                 0.87344    0.12656
     2   C       2.98239    3.41195      6.39435   -0.39435
     3   C       2.96563    3.00561      5.97124    0.02876
     4   C       2.98248    3.41149      6.39397   -0.39397
     5   C       2.98248    3.41149      6.39397   -0.39397
     6   H       0.87078                 0.87078    0.12922
     7   H       0.87078                 0.87078    0.12922
     8   H       0.87446                 0.87446    0.12554
     9   H       0.87072                 0.87072    0.12928
    10   H       0.87056                 0.87056    0.12944
    11   H       0.87446                 0.87446    0.12554
    12   H       0.87072                 0.87072    0.12928
    13   H       0.87056                 0.87056    0.12944

 Total charge composition, AO contributions:

   CEN ATOM SHL      SPHERICAL COMPONENTS
     1   H  1s       0.87344

     2   C  1s       1.99159
     2   C  2s       0.99080
     2   C  2p       1.10440    1.13872    1.16883

     3   C  1s       1.99304
     3   C  2s       0.97259
     3   C  2p       1.00226    0.99682    1.00653

     4   C  1s       1.99159
     4   C  2s       0.99088
     4   C  2p       1.14577    1.16272    1.10299

     5   C  1s       1.99159
     5   C  2s       0.99088
     5   C  2p       1.14577    1.16272    1.10299

     6   H  1s       0.87078

     7   H  1s       0.87078

     8   H  1s       0.87446

     9   H  1s       0.87072

    10   H  1s       0.87056

    11   H  1s       0.87446

    12   H  1s       0.87072

    13   H  1s       0.87056

 Active orbital charges:

   CEN ATOM         s          p       ELECTRONS ->SPIN.DEN
     1   H       0.03257                 0.03257    0.03257
     2   C       0.00009    0.00168      0.00177    0.00177
     3   C       0.01571    0.84107      0.85678    0.85678
     4   C       0.00011    0.00173      0.00184    0.00184
     5   C       0.00011    0.00173      0.00184    0.00184
     6   H       0.00660                 0.00660    0.00660
     7   H       0.00660                 0.00660    0.00660
     8   H       0.03284                 0.03284    0.03284
     9   H       0.00657                 0.00657    0.00657
    10   H       0.00659                 0.00659    0.00659
    11   H       0.03284                 0.03284    0.03284
    12   H       0.00657                 0.00657    0.00657
    13   H       0.00659                 0.00659    0.00659

 Active orbital charges, AO contributions:

   CEN ATOM SHL      SPHERICAL COMPONENTS
     1   H  1s       0.03257

     2   C  1s       0.00000
     2   C  2s       0.00009
     2   C  2p       0.00000    0.00168    0.00000

     3   C  1s       0.00001
     3   C  2s       0.01570
     3   C  2p       0.16520    0.67587    0.00000

     4   C  1s       0.00000
     4   C  2s       0.00011
     4   C  2p       0.00065    0.00073    0.00035

     5   C  1s       0.00000
     5   C  2s       0.00011
     5   C  2p       0.00065    0.00073    0.00035

     6   H  1s       0.00660

     7   H  1s       0.00660

     8   H  1s       0.03284

     9   H  1s       0.00657

    10   H  1s       0.00659

    11   H  1s       0.03284

    12   H  1s       0.00657

    13   H  1s       0.00659

 Summary of localized orbital composition:   [THRPRINT= 0.020]

   ORB  GRP  ORB.ENERGY      CENTERS/CHARGES
     1   1   -10.191855      C  4   2.000
     2   1   -10.191855      C  5   2.000
     3   1   -10.191803      C  2   2.000
     4   1   -10.181116      C  3   2.000
     5   1    -0.618249      C  5   1.006   C  3   0.981
     6   1    -0.618249      C  4   1.006   C  3   0.981
     7   1    -0.618209      C  2   1.006   C  3   0.981
     8   1    -0.532577      C  2   1.125   H  1   0.837   C  3   0.036
     9   1    -0.532242      C  4   1.124   H  8   0.838   C  3   0.036
    10   1    -0.532242      C  5   1.124   H 11   0.838   C  3   0.036
    11   1    -0.531498      C  2   1.128   H  6   0.858
    12   1    -0.531498      C  2   1.128   H  7   0.858
    13   1    -0.531475      C  5   1.128   H 12   0.858
    14   1    -0.531475      C  4   1.128   H  9   0.858
    15   1    -0.531474      C  4   1.128   H 10   0.858
    16   1    -0.531474      C  5   1.128   H 13   0.858
    17   2    -0.011030      C  3   0.857   H 11   0.033   H  8   0.033   H  1   0.033   (other: 0.045)

 Localized orbitals saved to record      2100.2  (orbital set 2)


 **********************************************************************************************************************************
 DATASETS  * FILE   NREC   LENGTH (MB)   RECORD NAMES
              1      20       32.07       500      610      700      900      950      970     1000      129      960     1100   
                                          VAR    BASINP    GEOM    SYMINP    ZMAT    AOBASIS   BASIS     P2S    ABASIS      S 
                                         1400     1410     1200     1210     1080     1600     1650     1300     1700     1800   
                                           T        V       H0       H01     AOSYM     SMH    MOLCAS    ERIS     OPER     GRID   

              2       5        3.00       700     1000      520     1800     2100   
                                         GEOM     BASIS   MCVARS    GRID      RKS  

 PROGRAMS   *        TOTAL      IBBA        KS       INT
 CPU TIMES  *         7.55      0.03      7.04      0.33
 REAL TIME  *         8.18 SEC
 DISK USED  *        35.68 MB      
 **********************************************************************************************************************************
 Molecular orbitals read from record     2100.2  Type=RKS/LOCAL(IBO)  
 Occupation numbers read from record     2100.2  Type=RKS/LOCAL(IBO)  
 Orbital energies read from record       2100.2  Type=RKS/LOCAL(IBO)  
 Redundancy group numbers read from rec  2100.2  Type=RKS/LOCAL(IBO)  

 IBBA/STO-3G energy=      0.000000000000

        KS-SCF  
   -155.73459639
 **********************************************************************************************************************************
 Molpro calculation terminated
