
 Primary working directories    : /tmp/sb13343
 Secondary working directories  : /tmp/sb13343
 Wavefunction directory         : /panfs/panasas01/chem/sb13343/wfu/
 Main file repository           : /tmp/sb13343/

 SHA1      : b4a5b34a9e711420743f49e6833241d17c61fb3c
 NAME      : 2099.9.b4a5b34
 ARCHNAME  : linux/x86_64_openmp
 FC        : /cm/shared/languages/GCC-6.1/bin/gfortran
 BLASLIB   : -lblas
 id        : simonbennie

 Nodes     nprocs
 node33-008    1

 Using customized tuning parameters: mindgm=1; mindgv=20; mindgc=4; mindgr=1; noblas=0; minvec=7
 default implementation of scratch files=df  

 memory,500,m
 geomtyp=xyz
 nosym
 noorient
 geometry={
 C         -1.53233        0.02247        0.00000
 C         -0.00192        0.01421        0.00000
 O          0.37239        1.40356        0.00000
 H          1.34248        1.44036        0.00000
 H         -1.92991       -0.99819        0.00000
 H         -1.90797        0.54382       -0.88653
 H         -1.90797        0.54382        0.88653
 C          0.54303       -0.66466       -1.26580
 C          0.54303       -0.66466        1.26580
 H          0.17836       -0.14752       -2.15943
 H          0.17836       -0.14752        2.15943
 H          0.23752       -1.71600       -1.32280
 H          0.23752       -1.71600        1.32280
 H          1.64084       -0.63767       -1.28032
 H          1.64084       -0.63767        1.28032
 }
 basis={ default,svp }
 {ks,M11-L,direct;wf,42,1,0}
 {ibba,bonds=1}

 Variables initialized (895), CPU time= 0.00 sec
 Commands  initialized (725), CPU time= 0.01 sec, 591 directives.
 Default parameters read. Elapsed time= 0.09 sec

 Checking input...
 Passed
1


                                         ***  PROGRAM SYSTEM MOLPRO  ***
                                       Copyright, TTI GmbH Stuttgart, 2015
                                    Version 2099.9 linked May 26 2017 16:03:21


 **********************************************************************************************************************************
 LABEL *                                                                                 
  64 bit serial version                                                                  DATE: 09-Jun-17          TIME: 03:46:40  
 **********************************************************************************************************************************

 SHA1:             b4a5b34a9e711420743f49e6833241d17c61fb3c
 **********************************************************************************************************************************
 SETTING GEOMTYP        =    XYZ

 Variable memory set to  500000000 words,  buffer space 

 ZSYMEL=NOSYM

 SETTING BASIS          =    SVP


 Recomputing integrals since basis changed


 Using spherical harmonics

 Library entry C      S def2-SVP             selected for orbital group  1
 Library entry C      P def2-SVP             selected for orbital group  1
 Library entry C      D def2-SVP             selected for orbital group  1
 Library entry O      S def2-SVP             selected for orbital group  2
 Library entry O      P def2-SVP             selected for orbital group  2
 Library entry O      D def2-SVP             selected for orbital group  2
 Library entry H      S def2-SVP             selected for orbital group  3
 Library entry H      P def2-SVP             selected for orbital group  3


 PROGRAM * SEWARD (Integral evaluation for generally contracted gaussian basis sets)     Author: Roland Lindh, 1990

 Geometry written to block  1 of record 700


 Point group  C1  



 ATOMIC COORDINATES

 NR  ATOM    CHARGE       X              Y              Z

   1  C       6.00   -2.895684032    0.042462146    0.000000000
   2  C       6.00   -0.003628274    0.026853008    0.000000000
   3  O       8.00    0.703715112    2.652343999    0.000000000
   4  H       1.00    2.536919528    2.721885921    0.000000000
   5  H       1.00   -3.647001345   -1.886305720    0.000000000
   6  H       1.00   -3.605540754    1.027670861   -1.675298901
   7  H       1.00   -3.605540754    1.027670861    1.675298901
   8  C       6.00    1.026177977   -1.256025366   -2.392015328
   9  C       6.00    1.026177977   -1.256025366    2.392015328
  10  H       1.00    0.337051552   -0.278772398   -4.080731285
  11  H       1.00    0.337051552   -0.278772398    4.080731285
  12  H       1.00    0.448847749   -3.242770030   -2.499729718
  13  H       1.00    0.448847749   -3.242770030    2.499729718
  14  H       1.00    3.100738214   -1.205021658   -2.419454152
  15  H       1.00    3.100738214   -1.205021658    2.419454152

 Bond lengths in Bohr (Angstrom)

 1-2  2.892097881  1-5  2.069933136  1-6  2.069096224  1-7  2.069096224  2-3  2.719106031
     ( 1.530432290)     ( 1.095361444)     ( 1.094918569)     ( 1.094918569)     ( 1.438888946)

  2- 8  2.903104402   2- 9  2.903104402   3- 4  1.834522965   8-10  2.069222119   8-12  2.071730422
       ( 1.536256691)       ( 1.536256691)       ( 0.970787746)       ( 1.094985190)       ( 1.096312526)

  8-14  2.075368508   9-11  2.069222119   9-13  2.071730422   9-15  2.075368508
       ( 1.098237719)       ( 1.094985190)       ( 1.096312526)       ( 1.098237719)

 Bond angles

  1-2-3  104.76902697   1-2-8  110.92255387   1-2-9  110.92255387   2-1-5  110.97328220

  2- 1- 6  110.22090701   2- 1- 7  110.22090701   2- 3- 4  107.25071562   2- 8-10  110.21836376

  2- 8-12  111.57747468   2- 8-14  110.77023896   2- 9-11  110.21836376   2- 9-13  111.57747468

  2- 9-15  110.77023896   3- 2- 8  109.53648747   3- 2- 9  109.53648747   5- 1- 6  108.61190457

  5- 1- 7  108.61190457   6- 1- 7  108.12870271   8- 2- 9  110.96453384  10- 8-12  108.52192632

 10- 8-14  108.08997829  11- 9-13  108.52192632  11- 9-15  108.08997829  12- 8-14  107.54424578

 13- 9-15  107.54424578

 NUCLEAR CHARGE:                   42
 NUMBER OF PRIMITIVE AOS:         195
 NUMBER OF SYMMETRY AOS:          190
 NUMBER OF CONTRACTIONS:          120   ( 120A   )
 NUMBER OF CORE ORBITALS:           5   (   5A   )
 NUMBER OF VALENCE ORBITALS:       30   (  30A   )


 NUCLEAR REPULSION ENERGY  198.77359127


 Eigenvalues of metric

         1 0.176E-02 0.546E-02 0.548E-02 0.123E-01 0.248E-01 0.256E-01 0.256E-01 0.275E-01


 Contracted 2-electron integrals neglected if value below      1.0D-11
 AO integral compression algorithm  1   Integral accuracy      1.0D-11

     101.974 MB (compressed) written to integral file ( 44.9%)


 NUMBER OF SORTED TWO-ELECTRON INTEGRALS:   26357430.     BUFFER LENGTH:  32768
 NUMBER OF SEGMENTS:   2  SEGMENT LENGTH:   15997996      RECORD LENGTH: 524288

 Memory used in sort:      16.56 MW

 SORT1 READ    28411733. AND WROTE    24096425. INTEGRALS IN     70 RECORDS. CPU TIME:     0.35 SEC, REAL TIME:     0.66 SEC
 SORT2 READ    24096425. AND WROTE    26357430. INTEGRALS IN    389 RECORDS. CPU TIME:     0.65 SEC, REAL TIME:     4.21 SEC

 FILE SIZES:   FILE 1:   132.7 MBYTE,  FILE 4:   293.6 MBYTE,   TOTAL:    426.4 MBYTE

 OPERATOR DM      FOR CENTER  0  COORDINATES:    0.000000    0.000000    0.000000


 **********************************************************************************************************************************
 DATASETS  * FILE   NREC   LENGTH (MB)   RECORD NAMES
              1      19      120.44       500      610      700      900      950      970     1000      129      960     1100   
                                          VAR    BASINP    GEOM    SYMINP    ZMAT    AOBASIS   BASIS     P2S    ABASIS      S 
                                         1400     1410     1200     1210     1080     1600     1650     1300     1700   
                                           T        V       H0       H01     AOSYM     SMH    MOLCAS    ERIS     OPER   

 PROGRAMS   *        TOTAL       INT
 CPU TIMES  *         4.04      3.90
 REAL TIME  *         8.66 SEC
 DISK USED  *       426.89 MB      
 **********************************************************************************************************************************

 Density functional group M11-L=XC-M11-L
 Functional: XC-M11-L(via MFM 1.6)                                             Gradient terms: 1
 Use grid at  1800.2

 Functional: XC-M11-L                  Factor:  1.0000

 Generated new metagrid on record  1800.2 with target accuracy 1.0D-06 and 53396 points in CPU time    1.6
 Computed new grid on record 1800.1 in CPU time    1.8
   99539 words reserved for DFT integration

 PROGRAM * RKS-SCF (Restricted closed shell Kohn-Sham)     Authors: W. Meyer, H.-J. Werner, P.J. Knowles, 1993

 NUMBER OF ELECTRONS:      21+   21-    SPACE SYMMETRY=1    SPIN SYMMETRY: Singlet 
 CONVERGENCE THRESHOLDS:    1.00E-05 (Density)    1.00E-06 (Energy)
 MAX. NUMBER OF ITERATIONS:       60
 INTERPOLATION TYPE:            DIIS
 INTERPOLATION STEPS:              2 (START)      1 (STEP)
 LEVEL SHIFTS:                  0.00 (CLOSED)  0.00 (OPEN) 



 Use fine grid record 1800.2 for energy threshold  1.0D-06
 Orbital guess generated from atomic densities. Full valence occupancy:   21

 Molecular orbital dump at record        2100.2

 Initial occupancy:  21

 ITERATION    DDIFF          GRAD             ENERGY        2-EL.EN.            DIPOLE MOMENTS         DIIS   ORB.
    1      0.000D+00      0.000D+00      -233.13757279    637.371623    0.69506   -0.91092    0.00000    0    start
    2      0.000D+00      0.102D-01      -232.96055286    598.918600   -0.23633    0.28817    0.00000    1    diag
    3      0.273D-01      0.137D-01      -233.38616789    622.204836    0.42896   -0.56490    0.00000    2    diag
    4      0.197D-01      0.128D-02      -233.38901626    621.093594    0.36673   -0.43700    0.00000    3    diag
    5      0.171D-02      0.534D-03      -233.38955373    621.308715    0.37061   -0.48523    0.00000    4    diag
    6      0.571D-03      0.717D-04      -233.38956229    621.234591    0.37418   -0.46847    0.00000    5    diag
    7      0.107D-03      0.296D-04      -233.38956401    621.223599    0.37298   -0.47524    0.00000    6    diag
    8      0.365D-04      0.101D-04      -233.38956417    621.224049    0.37221   -0.47496    0.00000    7    diag
    9      0.958D-05      0.247D-05      -233.38956417    621.221823    0.37278   -0.47427    0.00000    0    orth

 Final occupancy:  21

 !RKS STATE 1.1 Energy               -233.389564168048
 Nuclear energy                       198.77359127
 One-electron energy                 -708.81409980
 Two-electron energy                  310.61091169
 Density functional                   -33.95996733     XC-M11-L=-33.95996733
 Virial quotient                       -1.00666986
 !RKS STATE 1.1 Dipole moment           0.37277980    -0.47427387     0.00000000
 Dipole moment /Debye                   0.94744969    -1.20540499     0.00000000

 Orbital energies:

         1.1          2.1          3.1          4.1          5.1          6.1          7.1          8.1          9.1         10.1
    -19.370185   -10.423933   -10.356162   -10.356158   -10.350511    -1.017342    -0.763521    -0.661799    -0.660509    -0.540668

        11.1         12.1         13.1         14.1         15.1         16.1         17.1         18.1         19.1         20.1
     -0.462616    -0.422272    -0.419076    -0.382408    -0.367660    -0.352527    -0.338767    -0.330828    -0.323712    -0.300010

        21.1         22.1         23.1
     -0.249743     0.003246     0.049897

 HOMO     21.1    -0.249743 =      -6.7959eV
 LUMO     22.1     0.003246 =       0.0883eV
 LUMO-HOMO         0.252989 =       6.8842eV


 **********************************************************************************************************************************
 DATASETS  * FILE   NREC   LENGTH (MB)   RECORD NAMES
              1      20      122.15       500      610      700      900      950      970     1000      129      960     1100   
                                          VAR    BASINP    GEOM    SYMINP    ZMAT    AOBASIS   BASIS     P2S    ABASIS      S 
                                         1400     1410     1200     1210     1080     1600     1650     1300     1700     1800   
                                           T        V       H0       H01     AOSYM     SMH    MOLCAS    ERIS     OPER     GRID   

              2       5        3.30       700     1000      520     1800     2100   
                                         GEOM     BASIS   MCVARS    GRID      RKS  

 PROGRAMS   *        TOTAL        KS       INT
 CPU TIMES  *        33.53     29.49      3.90
 REAL TIME  *        38.90 SEC
 DISK USED  *       426.89 MB      
 **********************************************************************************************************************************


 PROGRAM * Intrinsic Basis Bonding Analysis (IBBA)          Author: G. Knizia

 Molecular orbitals read from record     2100.2  Type=RKS/CANONICAL (state 1.1)
 Fock matrix read from record            2100.2  Type=RKS/TOTAL (state 1.1)
 Orbital energies read from record       2100.2  Type=RKS/CANONICAL (state 1.1)
 Density matrix read from record         2100.2  Type=RKS/CHARGE (state 1.1)

 Number of core orbitals:           5 (   5 )
 Number of closed-shell orbitals:  16 (  16 )

 Basis set MINAO-AUTO-PP generated.      Number of basis functions:   35 

 Polarized AO type:                A = (O Ot + (1-O)(1-Ot)) P12
 Orthogonalization method:         Symmetric (Loewdin)
 Localization functional:          L = sum[A,i] <i|n_A|i>^4 -> max

 Localization group 1:  21 orbitals, occupancy  2.000
 Iterative localization: IB/PM,    7 iter; Final gradient 0.63E-08

 Bond order analysis:       [THRPRINT= 0.020]

   CEN ATOM   CEN ATOM     WIBERG.BO      RENORM.BO
     1   C  -   2   C       0.997119       0.993346
     1   C  -   5   H       0.964910       0.987795
     1   C  -   6   H       0.958933       0.980699
     1   C  -   7   H       0.958933       0.980699

     2   C  -   1   C       0.997119       0.993346
     2   C  -   9   C       0.995221       0.975131
     2   C  -   8   C       0.995221       0.975131
     2   C  -   3   O       0.929773       0.948060

     3   O  -   2   C       0.929773       0.948060
     3   O  -   4   H       0.856066       0.976676
     3   O  -   9   C       0.027889       0.014099
     3   O  -   8   C       0.027889       0.014099

     4   H  -   3   O       0.856066       0.976676

     5   H  -   1   C       0.964910       0.987795

     6   H  -   1   C       0.958933       0.980699

     7   H  -   1   C       0.958933       0.980699

     8   C  -   2   C       0.995221       0.975131
     8   C  -  14   H       0.963351       0.981169
     8   C  -  12   H       0.960209       0.980941
     8   C  -  10   H       0.959616       0.980514
     8   C  -   3   O       0.027889       0.014099

     9   C  -   2   C       0.995221       0.975131
     9   C  -  15   H       0.963351       0.981169
     9   C  -  13   H       0.960209       0.980941
     9   C  -  11   H       0.959616       0.980514
     9   C  -   3   O       0.027889       0.014099

    10   H  -   8   C       0.959616       0.980514

    11   H  -   9   C       0.959616       0.980514

    12   H  -   8   C       0.960209       0.980941

    13   H  -   9   C       0.960209       0.980941

    14   H  -   8   C       0.963351       0.981169

    15   H  -   9   C       0.963351       0.981169


 Valency analysis:

   CEN ATOM   TOT.VALENCE
     1   C       3.942517
     2   C       3.926919
     3   O       1.909421
     4   H       0.876009
     5   H       0.982823
     6   H       0.980144
     7   H       0.980144
     8   C       3.944562
     9   C       3.944562
    10   H       0.980330
    11   H       0.980330
    12   H       0.982087
    13   H       0.982087
    14   H       0.984515
    15   H       0.984515

 Total charge composition:

   CEN ATOM         s          p       ELECTRONS ->P.CHARGE
     1   C       3.06082    3.35504      6.41586   -0.41586
     2   C       2.94188    2.76146      5.70333    0.29667
     3   O       3.67510    4.91176      8.58686   -0.58686
     4   H       0.64788                 0.64788    0.35212
     5   H       0.86894                 0.86894    0.13106
     6   H       0.85909                 0.85909    0.14091
     7   H       0.85909                 0.85909    0.14091
     8   C       3.06687    3.36114      6.42801   -0.42801
     9   C       3.06687    3.36114      6.42801   -0.42801
    10   H       0.85975                 0.85975    0.14025
    11   H       0.85975                 0.85975    0.14025
    12   H       0.86616                 0.86616    0.13384
    13   H       0.86616                 0.86616    0.13384
    14   H       0.87556                 0.87556    0.12444
    15   H       0.87556                 0.87556    0.12444

 Total charge composition, AO contributions:

   CEN ATOM SHL      SPHERICAL COMPONENTS
     1   C  1s       1.98878
     1   C  2s       1.07205
     1   C  2p       1.04491    1.14909    1.16104

     2   C  1s       1.99062
     2   C  2s       0.95126
     2   C  2p       0.99226    0.77698    0.99221

     3   O  1s       1.99664
     3   O  2s       1.67846
     3   O  2p       1.47087    1.48552    1.95537

     4   H  1s       0.64788

     5   H  1s       0.86894

     6   H  1s       0.85909

     7   H  1s       0.85909

     8   C  1s       1.98890
     8   C  2s       1.07797
     8   C  2p       1.13259    1.13488    1.09366

     9   C  1s       1.98890
     9   C  2s       1.07797
     9   C  2p       1.13259    1.13488    1.09366

    10   H  1s       0.85975

    11   H  1s       0.85975

    12   H  1s       0.86616

    13   H  1s       0.86616

    14   H  1s       0.87556

    15   H  1s       0.87556

 Summary of localized orbital composition:   [THRPRINT= 0.020]

   ORB  GRP  ORB.ENERGY      CENTERS/CHARGES
     1   1   -19.191281      O  3   2.000
     2   1   -10.328961      C  2   2.000
     3   1   -10.234389      C  8   2.000
     4   1   -10.234389      C  9   2.000
     5   1   -10.227874      C  1   2.000
     6   1    -0.741196      O  3   1.354   H  4   0.636
     7   1    -0.700499      O  3   1.292   C  2   0.688
     8   1    -0.591118      O  3   1.982
     9   1    -0.559271      C  8   1.020   C  2   0.965
    10   1    -0.559271      C  9   1.020   C  2   0.965
    11   1    -0.557805      C  1   1.003   C  2   0.973   (other: 0.024)
    12   1    -0.476412      C  9   1.129   H 13   0.857
    13   1    -0.476412      C  8   1.129   H 12   0.857
    14   1    -0.475093      C  9   1.120   H 15   0.868
    15   1    -0.475093      C  8   1.120   H 14   0.868
    16   1    -0.471894      C  1   1.124   H  5   0.862
    17   1    -0.470380      C  8   1.137   H 10   0.852
    18   1    -0.470380      C  9   1.137   H 11   0.852
    19   1    -0.465516      C  1   1.137   H  7   0.851
    20   1    -0.465516      C  1   1.137   H  6   0.851
    21   1    -0.277657      O  3   1.955   (other: 0.045)

 Localized orbitals saved to record      2100.2  (orbital set 2)


 **********************************************************************************************************************************
 DATASETS  * FILE   NREC   LENGTH (MB)   RECORD NAMES
              1      20      122.15       500      610      700      900      950      970     1000      129      960     1100   
                                          VAR    BASINP    GEOM    SYMINP    ZMAT    AOBASIS   BASIS     P2S    ABASIS      S 
                                         1400     1410     1200     1210     1080     1600     1650     1300     1700     1800   
                                           T        V       H0       H01     AOSYM     SMH    MOLCAS    ERIS     OPER     GRID   

              2       5        3.42       700     1000      520     1800     2100   
                                         GEOM     BASIS   MCVARS    GRID      RKS  

 PROGRAMS   *        TOTAL      IBBA        KS       INT
 CPU TIMES  *        33.57      0.04     29.49      3.90
 REAL TIME  *        39.03 SEC
 DISK USED  *       426.89 MB      
 **********************************************************************************************************************************
 Molecular orbitals read from record     2100.2  Type=RKS/LOCAL(IBO)  
 Occupation numbers read from record     2100.2  Type=RKS/LOCAL(IBO)  
 Orbital energies read from record       2100.2  Type=RKS/LOCAL(IBO)  
 Redundancy group numbers read from rec  2100.2  Type=RKS/LOCAL(IBO)  

 IBBA/SVP energy=      0.000000000000

        KS-SCF  
   -233.38956417
 **********************************************************************************************************************************
 Molpro calculation terminated
