
 Primary working directories    : /tmp/sb13343
 Secondary working directories  : /tmp/sb13343
 Wavefunction directory         : /panfs/panasas01/chem/sb13343/wfu/
 Main file repository           : /tmp/sb13343/

 SHA1      : b4a5b34a9e711420743f49e6833241d17c61fb3c
 NAME      : 2099.9.b4a5b34
 ARCHNAME  : linux/x86_64_openmp
 FC        : /cm/shared/languages/GCC-6.1/bin/gfortran
 BLASLIB   : -lblas
 id        : simonbennie

 Nodes     nprocs
 node32-036    1

 Using customized tuning parameters: mindgm=1; mindgv=20; mindgc=4; mindgr=1; noblas=0; minvec=7
 default implementation of scratch files=df  

 memory,500,m
 geomtyp=xyz
 nosym
 noorient
 geometry={
 H         -1.13405        1.76167        0.00000
 C         -1.32915        0.67205        0.00000
 C         -0.06360       -0.12883        0.00000
 C          0.67426       -0.31636        1.28970
 C          0.67426       -0.31636       -1.28970
 H         -1.94006        0.46750        0.88859
 H         -1.94006        0.46750       -0.88859
 H          1.28359        0.56876        1.55544
 H         -0.01165       -0.48291        2.13019
 H          1.36783       -1.16569        1.24157
 H          1.28359        0.56876       -1.55544
 H         -0.01165       -0.48291       -2.13019
 H          1.36783       -1.16569       -1.24157
 }
 basis={ default,sto-3g }
 {ks,LDA,direct;wf,33,1,1}
 {ibba,bonds=1}

 Variables initialized (895), CPU time= 0.01 sec
 Commands  initialized (725), CPU time= 0.01 sec, 591 directives.
 Default parameters read. Elapsed time= 0.08 sec

 Checking input...
 Passed
1


                                         ***  PROGRAM SYSTEM MOLPRO  ***
                                       Copyright, TTI GmbH Stuttgart, 2015
                                    Version 2099.9 linked May 26 2017 16:03:21


 **********************************************************************************************************************************
 LABEL *                                                                                 
  64 bit serial version                                                                  DATE: 08-Jun-17          TIME: 20:20:41  
 **********************************************************************************************************************************

 SHA1:             b4a5b34a9e711420743f49e6833241d17c61fb3c
 **********************************************************************************************************************************
 SETTING GEOMTYP        =    XYZ

 Variable memory set to  500000000 words,  buffer space 

 ZSYMEL=NOSYM

 SETTING BASIS          =    STO-3G


 Recomputing integrals since basis changed


 Using spherical harmonics

 Library entry H      S STO-3G               selected for orbital group  1
 Library entry C      S STO-3G               selected for orbital group  2
 Library entry C      P STO-3G               selected for orbital group  2


 PROGRAM * SEWARD (Integral evaluation for generally contracted gaussian basis sets)     Author: Roland Lindh, 1990

 Geometry written to block  1 of record 700


 Point group  C1  



 ATOMIC COORDINATES

 NR  ATOM    CHARGE       X              Y              Z

   1  H       1.00   -2.143043912    3.329073822    0.000000000
   2  C       6.00   -2.511729478    1.269990442    0.000000000
   3  C       6.00   -0.120186582   -0.243453417    0.000000000
   4  C       6.00    1.274166737   -0.597833757    2.437179783
   5  C       6.00    1.274166737   -0.597833757   -2.437179783
   6  H       1.00   -3.666182065    0.883446963    1.679191737
   7  H       1.00   -3.666182065    0.883446963   -1.679191737
   8  H       1.00    2.425633556    1.074800631    2.939355603
   9  H       1.00   -0.022015309   -0.912567643    4.025475693
  10  H       1.00    2.584824085   -2.202834846    2.346227264
  11  H       1.00    2.425633556    1.074800631   -2.939355603
  12  H       1.00   -0.022015309   -0.912567643   -4.025475693
  13  H       1.00    2.584824085   -2.202834846   -2.346227264

 Bond lengths in Bohr (Angstrom)

 1-2  2.091830159  2-3  2.830192527  2-6  2.074092940  2-7  2.074092940  3-4  2.830132841
     ( 1.106948849)     ( 1.497673388)     ( 1.097562717)     ( 1.097562717)     ( 1.497641803)

  3- 5  2.830132841   4- 8  2.091832255   4- 9  2.074085151   4-10  2.074156104   5-11  2.091832255
       ( 1.497641803)       ( 1.106949959)       ( 1.097558596)       ( 1.097596142)       ( 1.106949959)

  5-12  2.074085151   5-13  2.074156104
       ( 1.097558596)       ( 1.097596142)

 Bond angles

  1-2-3  112.17549786   1-2-6  106.35284965   1-2-7  106.35284965   2-3-4  118.89987932

  2-3-5  118.89987932   3-2-6  111.75744418   3-2-7  111.75744418   3-4-8  112.19808176

  3- 4- 9  111.75014522   3- 4-10  111.74379558   3- 5-11  112.19808176   3- 5-12  111.75014522

  3- 5-13  111.74379558   4- 3- 5  118.89276928   6- 2- 7  108.11431090   8- 4- 9  106.34995457

  8- 4-10  106.34572146   9- 4-10  108.12296896  11- 5-12  106.34995457  11- 5-13  106.34572146

 12- 5-13  108.12296896

 NUCLEAR CHARGE:                   33
 NUMBER OF PRIMITIVE AOS:          87
 NUMBER OF SYMMETRY AOS:           87
 NUMBER OF CONTRACTIONS:           29   (  29A   )
 NUMBER OF CORE ORBITALS:           4   (   4A   )
 NUMBER OF VALENCE ORBITALS:       25   (  25A   )


 NUCLEAR REPULSION ENERGY  124.92676597


 Eigenvalues of metric

         1 0.210E+00 0.225E+00 0.225E+00 0.315E+00 0.353E+00 0.353E+00 0.362E+00 0.372E+00


 Contracted 2-electron integrals neglected if value below      1.0D-11
 AO integral compression algorithm  1   Integral accuracy      1.0D-11

     0.786 MB (compressed) written to integral file (100.0%)


 NUMBER OF SORTED TWO-ELECTRON INTEGRALS:      94830.     BUFFER LENGTH:  32768
 NUMBER OF SEGMENTS:   1  SEGMENT LENGTH:      94830      RECORD LENGTH: 524288

 Memory used in sort:       0.65 MW

 SORT1 READ      108770. AND WROTE       91348. INTEGRALS IN      1 RECORDS. CPU TIME:     0.00 SEC, REAL TIME:     0.01 SEC
 SORT2 READ       91348. AND WROTE       94830. INTEGRALS IN      3 RECORDS. CPU TIME:     0.01 SEC, REAL TIME:     0.02 SEC

 FILE SIZES:   FILE 1:    31.0 MBYTE,  FILE 4:     4.2 MBYTE,   TOTAL:     35.2 MBYTE

 OPERATOR DM      FOR CENTER  0  COORDINATES:    0.000000    0.000000    0.000000


 **********************************************************************************************************************************
 DATASETS  * FILE   NREC   LENGTH (MB)   RECORD NAMES
              1      19       30.62       500      610      700      900      950      970     1000      129      960     1100   
                                          VAR    BASINP    GEOM    SYMINP    ZMAT    AOBASIS   BASIS     P2S    ABASIS      S 
                                         1400     1410     1200     1210     1080     1600     1650     1300     1700   
                                           T        V       H0       H01     AOSYM     SMH    MOLCAS    ERIS     OPER   

 PROGRAMS   *        TOTAL       INT
 CPU TIMES  *         0.46      0.32
 REAL TIME  *         0.76 SEC
 DISK USED  *        35.68 MB      
 **********************************************************************************************************************************

 Density functional group LDA=DIRAC+VWN5
 Functional: DIRAC(Automatically generated (new) DIRAC)                        Gradient terms: 0
 Functional: VWN5(Automatically generated (new) VWN5)                          Gradient terms: 0
 Use grid at  1800.2

 Functional: DIRAC                     Factor:  1.0000
 Functional: VWN5                      Factor:  1.0000

 Generated new metagrid on record  1800.2 with target accuracy 1.0D-06 and 45406 points in CPU time    1.3
 Computed new grid on record 1800.1 in CPU time    1.5
   16410 words reserved for DFT integration

 PROGRAM * RKS-SCF (Restricted open shell Kohn-Sham)     Authors: W. Meyer, H.-J. Werner, P.J. Knowles, 1993

 NUMBER OF ELECTRONS:      17+   16-    SPACE SYMMETRY=1    SPIN SYMMETRY: Doublet 
 CONVERGENCE THRESHOLDS:    1.00E-05 (Density)    1.00E-06 (Energy)
 MAX. NUMBER OF ITERATIONS:       60
 INTERPOLATION TYPE:            DIIS
 INTERPOLATION STEPS:              2 (START)      1 (STEP)
 LEVEL SHIFTS:                 -0.60 (CLOSED) -0.30 (OPEN) 



 Use fine grid record 1800.2 for energy threshold  1.0D-06
 Orbital guess generated from atomic densities. Full valence occupancy:   17

 Molecular orbital dump at record        2100.2

 Initial alpha occupancy:  17
 Initial beta  occupancy:  16
 Wave function symmetry:    1

 ITERATION    DDIFF          GRAD             ENERGY        2-EL.EN.            DIPOLE MOMENTS         DIIS   ORB.
    1      0.000D+00      0.000D+00      -154.06471621    414.573558    0.22230    0.44952   -0.00000    0    start
    2      0.000D+00      0.311D-01      -154.36365082    400.012645   -0.00403   -0.00793   -0.00000    1    diag,B
    3      0.652D-01      0.562D-02      -154.37355245    402.017940    0.04858    0.09835   -0.00000    2    diag,B
    4      0.102D-01      0.525D-03      -154.37385678    402.007776    0.04931    0.09980   -0.00000    3    diag,B
    5      0.133D-02      0.169D-03      -154.37389466    402.002727    0.04955    0.10028   -0.00000    4    diag,B
    6      0.535D-03      0.411D-04      -154.37389722    402.002094    0.04916    0.09949   -0.00000    5    diag,B
    7      0.133D-03      0.105D-04      -154.37389733    402.002470    0.04912    0.09940   -0.00000    6    fixocc
    8      0.300D-04      0.147D-05      -154.37389733    402.002487    0.04913    0.09943   -0.00000    7    diag,B
    9      0.421D-05      0.255D-06      -154.37389733    402.002499    0.04913    0.09943   -0.00000    0    orth

 Final alpha occupancy:  17
 Final beta  occupancy:  16

 !RKS STATE 1.1 Energy               -154.373897331536
 Nuclear energy                       124.92676597
 One-electron energy                 -456.74549712
 Two-electron energy                  201.00124933
 Density functional                   -23.55641551     DIRAC=-21.51880736 VWN5= -2.03760815
 Virial quotient                       -1.00728952
 !RKS STATE 1.1 Dipole moment           0.04912906     0.09943139    -0.00000000
 Dipole moment /Debye                   0.12486545     0.25271284    -0.00000000

 Orbital energies:

         1.1          2.1          3.1          4.1          5.1          6.1          7.1          8.1          9.1         10.1
     -9.576713    -9.576686    -9.576683    -9.555255    -0.660036    -0.568969    -0.568961    -0.417630    -0.339335    -0.339334

        11.1         12.1         13.1         14.1         15.1         16.1         17.1         18.1         19.1
     -0.335360    -0.288054    -0.288021    -0.271112    -0.240099    -0.240094    -0.042031     0.349392     0.349402

 HOMO     17.1    -0.042031 =      -1.1437eV
 LUMO     18.1     0.349392 =       9.5074eV
 LUMO-HOMO         0.391423 =      10.6512eV


 **********************************************************************************************************************************
 DATASETS  * FILE   NREC   LENGTH (MB)   RECORD NAMES
              1      20       32.07       500      610      700      900      950      970     1000      129      960     1100   
                                          VAR    BASINP    GEOM    SYMINP    ZMAT    AOBASIS   BASIS     P2S    ABASIS      S 
                                         1400     1410     1200     1210     1080     1600     1650     1300     1700     1800   
                                           T        V       H0       H01     AOSYM     SMH    MOLCAS    ERIS     OPER     GRID   

              2       5        2.99       700     1000      520     1800     2100   
                                         GEOM     BASIS   MCVARS    GRID      RKS  

 PROGRAMS   *        TOTAL        KS       INT
 CPU TIMES  *         3.72      3.25      0.32
 REAL TIME  *         4.13 SEC
 DISK USED  *        35.68 MB      
 **********************************************************************************************************************************


 PROGRAM * Intrinsic Basis Bonding Analysis (IBBA)          Author: G. Knizia

 Molecular orbitals read from record     2100.2  Type=RKS/CANONICAL (state 1.1)
 Fock matrix read from record            2100.2  Type=RKS/TOTAL (state 1.1)
 Orbital energies read from record       2100.2  Type=RKS/CANONICAL (state 1.1)
 Density matrix read from record         2100.2  Type=RKS/CHARGE (state 1.1)

 Number of core orbitals:           4 (   4 )
 Number of closed-shell orbitals:  12 (  12 )
 Number of active  orbitals:        1 (   1 )

 Basis set MINAO-AUTO-PP generated.      Number of basis functions:   29 

 Polarized AO type:                A = (O Ot + (1-O)(1-Ot)) P12
 Orthogonalization method:         Symmetric (Loewdin)
 Localization functional:          L = sum[A,i] <i|n_A|i>^4 -> max

 Localization group 1:  16 orbitals, occupancy  2.000
 Iterative localization: IB/PM,    7 iter; Final gradient 0.25E-08

 Bond order analysis:       [THRPRINT= 0.020]

   CEN ATOM   CEN ATOM     WIBERG.BO      RENORM.BO
     1   H  -   2   C       0.916727       0.998305
     1   H  -   3   C       0.034291       0.194968

     2   C  -   3   C       1.074543       1.316606
     2   C  -   7   H       0.950671       0.989615
     2   C  -   6   H       0.950671       0.989615
     2   C  -   1   H       0.916727       0.998305

     3   C  -   2   C       1.074543       1.316606
     3   C  -   5   C       1.074532       1.316567
     3   C  -   4   C       1.074532       1.316567
     3   C  -   1   H       0.034291       0.194968
     3   C  -  11   H       0.034269       0.194838
     3   C  -   8   H       0.034269       0.194838

     4   C  -   3   C       1.074532       1.316567
     4   C  -   9   H       0.950703       0.989607
     4   C  -  10   H       0.950624       0.989627
     4   C  -   8   H       0.916750       0.998302

     5   C  -   3   C       1.074532       1.316567
     5   C  -  12   H       0.950703       0.989607
     5   C  -  13   H       0.950624       0.989627
     5   C  -  11   H       0.916750       0.998302

     6   H  -   2   C       0.950671       0.989615

     7   H  -   2   C       0.950671       0.989615

     8   H  -   4   C       0.916750       0.998302
     8   H  -   3   C       0.034269       0.194838

     9   H  -   4   C       0.950703       0.989607

    10   H  -   4   C       0.950624       0.989627

    11   H  -   5   C       0.916750       0.998302
    11   H  -   3   C       0.034269       0.194838

    12   H  -   5   C       0.950703       0.989607

    13   H  -   5   C       0.950624       0.989627


 Valency analysis:

   CEN ATOM   TOT.VALENCE
     1   H       0.965605
     2   C       3.922303
     3   C       3.373019
     4   C       3.922300
     5   C       3.922300
     6   H       0.976024
     7   H       0.976024
     8   H       0.965608
     9   H       0.976036
    10   H       0.976011
    11   H       0.965608
    12   H       0.976036
    13   H       0.976011
 Localization group 2:   1 orbitals, occupancy  1.000
 Iterative localization: IB/PM,    1 iter; Final gradient 0.00E+00

 Bond order analysis:       [THRPRINT= 0.020]

   CEN ATOM   CEN ATOM     WIBERG.BO      RENORM.BO
     1   H  -   3   C       0.067304       0.500000


     3   C  -   1   H       0.067304       0.500000
     3   C  -  11   H       0.067304       0.500000
     3   C  -   8   H       0.067304       0.500000





     8   H  -   3   C       0.067304       0.500000



    11   H  -   3   C       0.067304       0.500000




 Valency analysis:

   CEN ATOM   TOT.VALENCE
     1   H       0.079152
     2   C       0.006838
     3   C       0.301276
     4   C       0.006824
     5   C       0.006824
     6   H       0.016739
     7   H       0.016739
     8   H       0.079151
     9   H       0.016679
    10   H       0.016820
    11   H       0.079151
    12   H       0.016679
    13   H       0.016820

 Total charge composition:

   CEN ATOM         s          p       ELECTRONS ->P.CHARGE
     1   H       0.85582                 0.85582    0.14418
     2   C       2.99029    3.45160      6.44189   -0.44189
     3   C       2.96572    3.01953      5.98525    0.01475
     4   C       2.99028    3.45161      6.44189   -0.44189
     5   C       2.99028    3.45161      6.44189   -0.44189
     6   H       0.85360                 0.85360    0.14640
     7   H       0.85360                 0.85360    0.14640
     8   H       0.85583                 0.85583    0.14417
     9   H       0.85361                 0.85361    0.14639
    10   H       0.85360                 0.85360    0.14640
    11   H       0.85583                 0.85583    0.14417
    12   H       0.85361                 0.85361    0.14639
    13   H       0.85360                 0.85360    0.14640

 Total charge composition, AO contributions:

   CEN ATOM SHL      SPHERICAL COMPONENTS
     1   H  1s       0.85582

     2   C  1s       1.99265
     2   C  2s       0.99764
     2   C  2p       1.11503    1.15003    1.18654

     3   C  1s       1.99398
     3   C  2s       0.97173
     3   C  2p       1.00496    1.01184    1.00273

     4   C  1s       1.99265
     4   C  2s       0.99763
     4   C  2p       1.16045    1.17761    1.11356

     5   C  1s       1.99265
     5   C  2s       0.99763
     5   C  2p       1.16045    1.17761    1.11356

     6   H  1s       0.85360

     7   H  1s       0.85360

     8   H  1s       0.85583

     9   H  1s       0.85361

    10   H  1s       0.85360

    11   H  1s       0.85583

    12   H  1s       0.85361

    13   H  1s       0.85360

 Active orbital charges:

   CEN ATOM         s          p       ELECTRONS ->SPIN.DEN
     1   H       0.04128                 0.04128    0.04128
     2   C       0.00011    0.00332      0.00343    0.00343
     3   C       0.01578    0.79943      0.81522    0.81522
     4   C       0.00011    0.00331      0.00342    0.00342
     5   C       0.00011    0.00331      0.00342    0.00342
     6   H       0.00844                 0.00844    0.00844
     7   H       0.00844                 0.00844    0.00844
     8   H       0.04128                 0.04128    0.04128
     9   H       0.00841                 0.00841    0.00841
    10   H       0.00848                 0.00848    0.00848
    11   H       0.04128                 0.04128    0.04128
    12   H       0.00841                 0.00841    0.00841
    13   H       0.00848                 0.00848    0.00848

 Active orbital charges, AO contributions:

   CEN ATOM SHL      SPHERICAL COMPONENTS
     1   H  1s       0.04128

     2   C  1s       0.00000
     2   C  2s       0.00011
     2   C  2p       0.00003    0.00329    0.00000

     3   C  1s       0.00001
     3   C  2s       0.01578
     3   C  2p       0.15646    0.64298    0.00000

     4   C  1s       0.00000
     4   C  2s       0.00011
     4   C  2p       0.00109    0.00191    0.00032

     5   C  1s       0.00000
     5   C  2s       0.00011
     5   C  2p       0.00109    0.00191    0.00032

     6   H  1s       0.00844

     7   H  1s       0.00844

     8   H  1s       0.04128

     9   H  1s       0.00841

    10   H  1s       0.00848

    11   H  1s       0.04128

    12   H  1s       0.00841

    13   H  1s       0.00848

 Summary of localized orbital composition:   [THRPRINT= 0.020]

   ORB  GRP  ORB.ENERGY      CENTERS/CHARGES
     1   1    -9.468200      C  2   2.000
     2   1    -9.468196      C  5   2.000
     3   1    -9.468196      C  4   2.000
     4   1    -9.462850      C  3   2.000
     5   1    -0.470753      C  4   1.009   C  3   0.977
     6   1    -0.470753      C  5   1.009   C  3   0.977
     7   1    -0.470732      C  2   1.009   C  3   0.977
     8   1    -0.397782      C  2   1.136   H  1   0.809   C  3   0.051
     9   1    -0.397780      C  4   1.136   H  8   0.809   C  3   0.051
    10   1    -0.397780      C  5   1.136   H 11   0.809   C  3   0.051
    11   1    -0.394894      C  2   1.143   H  7   0.838
    12   1    -0.394894      C  2   1.143   H  6   0.838
    13   1    -0.394891      C  5   1.143   H 12   0.838
    14   1    -0.394891      C  4   1.143   H  9   0.838
    15   1    -0.394872      C  5   1.143   H 13   0.838
    16   1    -0.394872      C  4   1.143   H 10   0.838
    17   2    -0.005181      C  3   0.815   H  1   0.041   H 11   0.041   H  8   0.041   (other: 0.061)

 Localized orbitals saved to record      2100.2  (orbital set 2)


 **********************************************************************************************************************************
 DATASETS  * FILE   NREC   LENGTH (MB)   RECORD NAMES
              1      20       32.07       500      610      700      900      950      970     1000      129      960     1100   
                                          VAR    BASINP    GEOM    SYMINP    ZMAT    AOBASIS   BASIS     P2S    ABASIS      S 
                                         1400     1410     1200     1210     1080     1600     1650     1300     1700     1800   
                                           T        V       H0       H01     AOSYM     SMH    MOLCAS    ERIS     OPER     GRID   

              2       5        3.00       700     1000      520     1800     2100   
                                         GEOM     BASIS   MCVARS    GRID      RKS  

 PROGRAMS   *        TOTAL      IBBA        KS       INT
 CPU TIMES  *         3.75      0.02      3.25      0.32
 REAL TIME  *         4.27 SEC
 DISK USED  *        35.68 MB      
 **********************************************************************************************************************************
 Molecular orbitals read from record     2100.2  Type=RKS/LOCAL(IBO)  
 Occupation numbers read from record     2100.2  Type=RKS/LOCAL(IBO)  
 Orbital energies read from record       2100.2  Type=RKS/LOCAL(IBO)  
 Redundancy group numbers read from rec  2100.2  Type=RKS/LOCAL(IBO)  

 IBBA/STO-3G energy=      0.000000000000

        KS-SCF  
   -154.37389733
 **********************************************************************************************************************************
 Molpro calculation terminated
