
 Primary working directories    : /tmp/sb13343
 Secondary working directories  : /tmp/sb13343
 Wavefunction directory         : /panfs/panasas01/chem/sb13343/wfu/
 Main file repository           : /tmp/sb13343/

 SHA1      : b4a5b34a9e711420743f49e6833241d17c61fb3c
 NAME      : 2099.9.b4a5b34
 ARCHNAME  : linux/x86_64_openmp
 FC        : /cm/shared/languages/GCC-6.1/bin/gfortran
 BLASLIB   : -lblas
 id        : simonbennie

 Nodes     nprocs
 node32-036    1

 Using customized tuning parameters: mindgm=1; mindgv=20; mindgc=4; mindgr=1; noblas=0; minvec=7
 default implementation of scratch files=df  

 memory,500,m
 geomtyp=xyz
 nosym
 noorient
 geometry={
 H         -1.13405        1.76167        0.00000
 C         -1.32915        0.67205        0.00000
 C         -0.06360       -0.12883        0.00000
 C          0.67426       -0.31636        1.28970
 C          0.67426       -0.31636       -1.28970
 H         -1.94006        0.46750        0.88859
 H         -1.94006        0.46750       -0.88859
 H          1.28359        0.56876        1.55544
 H         -0.01165       -0.48291        2.13019
 H          1.36783       -1.16569        1.24157
 H          1.28359        0.56876       -1.55544
 H         -0.01165       -0.48291       -2.13019
 H          1.36783       -1.16569       -1.24157
 }
 basis={ default,sto-3g }
 {uks,B97R,direct;wf,33,1,1}
 {ibba,bonds=1}

 Variables initialized (895), CPU time= 0.00 sec
 Commands  initialized (725), CPU time= 0.01 sec, 591 directives.
 Default parameters read. Elapsed time= 0.07 sec

 Checking input...
 Passed
1


                                         ***  PROGRAM SYSTEM MOLPRO  ***
                                       Copyright, TTI GmbH Stuttgart, 2015
                                    Version 2099.9 linked May 26 2017 16:03:21


 **********************************************************************************************************************************
 LABEL *                                                                                 
  64 bit serial version                                                                  DATE: 08-Jun-17          TIME: 20:04:06  
 **********************************************************************************************************************************

 SHA1:             b4a5b34a9e711420743f49e6833241d17c61fb3c
 **********************************************************************************************************************************
 SETTING GEOMTYP        =    XYZ

 Variable memory set to  500000000 words,  buffer space 

 ZSYMEL=NOSYM

 SETTING BASIS          =    STO-3G


 Recomputing integrals since basis changed


 Using spherical harmonics

 Library entry H      S STO-3G               selected for orbital group  1
 Library entry C      S STO-3G               selected for orbital group  2
 Library entry C      P STO-3G               selected for orbital group  2


 PROGRAM * SEWARD (Integral evaluation for generally contracted gaussian basis sets)     Author: Roland Lindh, 1990

 Geometry written to block  1 of record 700


 Point group  C1  



 ATOMIC COORDINATES

 NR  ATOM    CHARGE       X              Y              Z

   1  H       1.00   -2.143043912    3.329073822    0.000000000
   2  C       6.00   -2.511729478    1.269990442    0.000000000
   3  C       6.00   -0.120186582   -0.243453417    0.000000000
   4  C       6.00    1.274166737   -0.597833757    2.437179783
   5  C       6.00    1.274166737   -0.597833757   -2.437179783
   6  H       1.00   -3.666182065    0.883446963    1.679191737
   7  H       1.00   -3.666182065    0.883446963   -1.679191737
   8  H       1.00    2.425633556    1.074800631    2.939355603
   9  H       1.00   -0.022015309   -0.912567643    4.025475693
  10  H       1.00    2.584824085   -2.202834846    2.346227264
  11  H       1.00    2.425633556    1.074800631   -2.939355603
  12  H       1.00   -0.022015309   -0.912567643   -4.025475693
  13  H       1.00    2.584824085   -2.202834846   -2.346227264

 Bond lengths in Bohr (Angstrom)

 1-2  2.091830159  2-3  2.830192527  2-6  2.074092940  2-7  2.074092940  3-4  2.830132841
     ( 1.106948849)     ( 1.497673388)     ( 1.097562717)     ( 1.097562717)     ( 1.497641803)

  3- 5  2.830132841   4- 8  2.091832255   4- 9  2.074085151   4-10  2.074156104   5-11  2.091832255
       ( 1.497641803)       ( 1.106949959)       ( 1.097558596)       ( 1.097596142)       ( 1.106949959)

  5-12  2.074085151   5-13  2.074156104
       ( 1.097558596)       ( 1.097596142)

 Bond angles

  1-2-3  112.17549786   1-2-6  106.35284965   1-2-7  106.35284965   2-3-4  118.89987932

  2-3-5  118.89987932   3-2-6  111.75744418   3-2-7  111.75744418   3-4-8  112.19808176

  3- 4- 9  111.75014522   3- 4-10  111.74379558   3- 5-11  112.19808176   3- 5-12  111.75014522

  3- 5-13  111.74379558   4- 3- 5  118.89276928   6- 2- 7  108.11431090   8- 4- 9  106.34995457

  8- 4-10  106.34572146   9- 4-10  108.12296896  11- 5-12  106.34995457  11- 5-13  106.34572146

 12- 5-13  108.12296896

 NUCLEAR CHARGE:                   33
 NUMBER OF PRIMITIVE AOS:          87
 NUMBER OF SYMMETRY AOS:           87
 NUMBER OF CONTRACTIONS:           29   (  29A   )
 NUMBER OF CORE ORBITALS:           4   (   4A   )
 NUMBER OF VALENCE ORBITALS:       25   (  25A   )


 NUCLEAR REPULSION ENERGY  124.92676597


 Eigenvalues of metric

         1 0.210E+00 0.225E+00 0.225E+00 0.315E+00 0.353E+00 0.353E+00 0.362E+00 0.372E+00


 Contracted 2-electron integrals neglected if value below      1.0D-11
 AO integral compression algorithm  1   Integral accuracy      1.0D-11

     0.786 MB (compressed) written to integral file (100.0%)


 NUMBER OF SORTED TWO-ELECTRON INTEGRALS:      94830.     BUFFER LENGTH:  32768
 NUMBER OF SEGMENTS:   1  SEGMENT LENGTH:      94830      RECORD LENGTH: 524288

 Memory used in sort:       0.65 MW

 SORT1 READ      108770. AND WROTE       91348. INTEGRALS IN      1 RECORDS. CPU TIME:     0.00 SEC, REAL TIME:     0.01 SEC
 SORT2 READ       91348. AND WROTE       94830. INTEGRALS IN      3 RECORDS. CPU TIME:     0.01 SEC, REAL TIME:     0.01 SEC

 FILE SIZES:   FILE 1:    31.0 MBYTE,  FILE 4:     4.2 MBYTE,   TOTAL:     35.2 MBYTE

 OPERATOR DM      FOR CENTER  0  COORDINATES:    0.000000    0.000000    0.000000


 **********************************************************************************************************************************
 DATASETS  * FILE   NREC   LENGTH (MB)   RECORD NAMES
              1      19       30.62       500      610      700      900      950      970     1000      129      960     1100   
                                          VAR    BASINP    GEOM    SYMINP    ZMAT    AOBASIS   BASIS     P2S    ABASIS      S 
                                         1400     1410     1200     1210     1080     1600     1650     1300     1700   
                                           T        V       H0       H01     AOSYM     SMH    MOLCAS    ERIS     OPER   

 PROGRAMS   *        TOTAL       INT
 CPU TIMES  *         0.46      0.32
 REAL TIME  *         1.50 SEC
 DISK USED  *        35.68 MB      
 **********************************************************************************************************************************

 Density functional group B97R=B97RDF
 Functional: B97RDF(Automatically generated (new) B97RDF)                      Gradient terms: 1
 Use grid at  1800.2


 Exact exchange will be calculated, factor:  0.2100

 Functional: B97RDF                    Factor:  1.0000

 Generated new metagrid on record  1800.2 with target accuracy 1.0D-06 and 45406 points in CPU time    1.4
 Computed new grid on record 1800.1 in CPU time    1.5
   27459 words reserved for DFT integration

 PROGRAM * UKS-SCF (Unrestricted Kohn-Sham)     Authors: W. Meyer, H.-J. Werner, P.J. Knowles, 1993

 NUMBER OF ELECTRONS:      17+   16-    SPACE SYMMETRY=1    SPIN SYMMETRY: Doublet 
 CONVERGENCE THRESHOLDS:    1.00E-05 (Density)    1.00E-06 (Energy)
 MAX. NUMBER OF ITERATIONS:       60
 INTERPOLATION TYPE:            DIIS
 INTERPOLATION STEPS:              2 (START)      1 (STEP)
 LEVEL SHIFTS:                 -0.20 (ALPHA)  -0.20 (BETA) 



 Use fine grid record 1800.2 for energy threshold  1.0D-06
 Orbital guess generated from atomic densities. Full valence occupancy:   17

 Molecular orbital dump at record        2200.2

 Initial alpha occupation  17
 Initial beta  occupation  16

 ITERATION    DDIFF          GRAD             ENERGY        2-EL.EN.            DIPOLE MOMENTS         DIIS
    1      0.000D+00      0.000D+00      -155.63487838    401.809269    0.19553    0.39544   -0.00000    0
    2      0.528D-01      0.194D-01      -155.86155404    390.242480    0.04171    0.08441   -0.00000    1
    3      0.527D-02      0.267D-02      -155.86572822    391.149953    0.04349    0.08805   -0.00000    2
    4      0.179D-02      0.995D-03      -155.86687903    391.124731    0.03980    0.08059   -0.00000    3
    5      0.876D-03      0.422D-03      -155.86709652    391.124051    0.03778    0.07651   -0.00000    4
    6      0.205D-03      0.794D-04      -155.86710634    391.119458    0.03757    0.07609   -0.00000    5
    7      0.335D-04      0.199D-04      -155.86710672    391.120271    0.03753    0.07601   -0.00000    6
    8      0.564D-05      0.415D-05      -155.86710674    391.120367    0.03754    0.07602   -0.00000    6
    9      0.193D-05      0.856D-06      -155.86710674    391.120159    0.03753    0.07601   -0.00000    6

 Final alpha occupancy:  17
 Final beta  occupancy:  16

 !UKS STATE 1.1 Energy               -155.867106744525
 Nuclear energy                       124.92676597
 One-electron energy                 -456.34112308
 Two-electron energy                  195.56007932
 Density functional                   -20.01282895     B97RDF=-20.01282895
 Virial quotient                       -1.01561202
 !UKS STATE 1.1 Dipole moment           0.03753094     0.07601191    -0.00000000
 Dipole moment /Debye                   0.09538790     0.19319034    -0.00000000

 Orbital energies for positive spin:

         1.1          2.1          3.1          4.1          5.1          6.1          7.1          8.1          9.1         10.1
    -10.008368   -10.008359   -10.008342    -9.986394    -0.761343    -0.653678    -0.653667    -0.499052    -0.404876    -0.400305

        11.1         12.1         13.1         14.1         15.1         16.1         17.1         18.1         19.1
     -0.400285    -0.348337    -0.348293    -0.330519    -0.297250    -0.297244    -0.104655     0.393468     0.393471

 Orbital energies for negative spin:

         1.1          2.1          3.1          4.1          5.1          6.1          7.1          8.1          9.1         10.1
    -10.009228   -10.009219   -10.009189    -9.975028    -0.742010    -0.652023    -0.652013    -0.476202    -0.396123    -0.396104

        11.1         12.1         13.1         14.1         15.1         16.1         17.1         18.1         19.1
     -0.385816    -0.343807    -0.343766    -0.329955    -0.290538    -0.290534     0.078981     0.398050     0.398060

 HOMO     17.1    -0.104655 =      -2.8478eV
 LUMO    -17.1     0.078981 =       2.1492eV
 LUMO-HOMO         0.183636 =       4.9970eV

 EXPECTATION VALUE OF S**2:             0.75453406

 Occupation number threshold for canonical orbitals:  1.999000 (occupied),  0.001000 (virtual)

 Number of pseudo-canonical orbitals per symmetry:   15
 Number of active natural orbitals per symmetry:      3

 Natural orbitals saved to record    2200.2 (Orbital set 3)

 Orbital spaces for UNO-CAS (Min. occupation: 0.020  Max. occupation: 1.980):

 Closed:       16
 Active:        1


 **********************************************************************************************************************************
 DATASETS  * FILE   NREC   LENGTH (MB)   RECORD NAMES
              1      20       32.07       500      610      700      900      950      970     1000      129      960     1100   
                                          VAR    BASINP    GEOM    SYMINP    ZMAT    AOBASIS   BASIS     P2S    ABASIS      S 
                                         1400     1410     1200     1210     1080     1600     1650     1300     1700     1800   
                                           T        V       H0       H01     AOSYM     SMH    MOLCAS    ERIS     OPER     GRID   

              2       5        3.00       700     1000      520     1800     2200   
                                         GEOM     BASIS   MCVARS    GRID      UKS  

 PROGRAMS   *        TOTAL       UKS       INT
 CPU TIMES  *         4.77      4.30      0.32
 REAL TIME  *         6.21 SEC
 DISK USED  *        35.68 MB      
 **********************************************************************************************************************************


 PROGRAM * Intrinsic Basis Bonding Analysis (IBBA)          Author: G. Knizia

 Molecular orbitals read from record     2200.2  Type=UKS/ALPHA (state 1.1)
 Fock matrix read from record            2200.2  Type=UKS/TOTAL (state 1.1)
 Orbital energies read from record       2200.2  Type=UKS/ALPHA (state 1.1)
 Density matrix read from record         2200.2  Type=UKS/CHARGE (state 1.1)

 Number of core orbitals:           4 (   4 )
 Number of closed-shell orbitals:  12 (  12 )
 Number of active  orbitals:        1 (   1 )

 Basis set MINAO-AUTO-PP generated.      Number of basis functions:   29 

 Polarized AO type:                A = (O Ot + (1-O)(1-Ot)) P12
 Orthogonalization method:         Symmetric (Loewdin)
 Localization functional:          L = sum[A,i] <i|n_A|i>^4 -> max

 Localization group 1:  16 orbitals, occupancy  2.000
 Iterative localization: IB/PM,    7 iter; Final gradient 0.62E-08

 Bond order analysis:       [THRPRINT= 0.020]

   CEN ATOM   CEN ATOM     WIBERG.BO      RENORM.BO
     1   H  -   2   C       0.892499       0.996581
     1   H  -   3   C       0.049746       0.179007

     2   C  -   3   C       1.116212       1.309587
     2   C  -   7   H       0.952795       0.989738
     2   C  -   6   H       0.952795       0.989738
     2   C  -   1   H       0.892499       0.996581

     3   C  -   2   C       1.116212       1.309587
     3   C  -   5   C       1.116192       1.309540
     3   C  -   4   C       1.116192       1.309540
     3   C  -   1   H       0.049746       0.179007
     3   C  -  11   H       0.049714       0.178887
     3   C  -   8   H       0.049714       0.178887

     4   C  -   3   C       1.116192       1.309540
     4   C  -   9   H       0.952840       0.989733
     4   C  -  10   H       0.952718       0.989749
     4   C  -   8   H       0.892541       0.996577

     5   C  -   3   C       1.116192       1.309540
     5   C  -  12   H       0.952840       0.989733
     5   C  -  13   H       0.952718       0.989749
     5   C  -  11   H       0.892541       0.996577

     6   H  -   2   C       0.952795       0.989738

     7   H  -   2   C       0.952795       0.989738

     8   H  -   4   C       0.892541       0.996577
     8   H  -   3   C       0.049714       0.178887

     9   H  -   4   C       0.952840       0.989733

    10   H  -   4   C       0.952718       0.989749

    11   H  -   5   C       0.892541       0.996577
    11   H  -   3   C       0.049714       0.178887

    12   H  -   5   C       0.952840       0.989733

    13   H  -   5   C       0.952718       0.989749


 Valency analysis:

   CEN ATOM   TOT.VALENCE
     1   H       0.967658
     2   C       3.948435
     3   C       3.556888
     4   C       3.948420
     5   C       3.948420
     6   H       0.980834
     7   H       0.980834
     8   H       0.967663
     9   H       0.980838
    10   H       0.980817
    11   H       0.967663
    12   H       0.980838
    13   H       0.980817
 Localization group 2:   1 orbitals, occupancy  1.000
 Iterative localization: IB/PM,    1 iter; Final gradient 0.00E+00

 Bond order analysis:       [THRPRINT= 0.020]

   CEN ATOM   CEN ATOM     WIBERG.BO      RENORM.BO
     1   H  -   3   C       0.076460       0.500000


     3   C  -   1   H       0.076460       0.500000
     3   C  -  11   H       0.076442       0.500000
     3   C  -   8   H       0.076442       0.500000





     8   H  -   3   C       0.076442       0.500000



    11   H  -   3   C       0.076442       0.500000




 Valency analysis:

   CEN ATOM   TOT.VALENCE
     1   H       0.095646
     2   C       0.020218
     3   C       0.365688
     4   C       0.020195
     5   C       0.020195
     6   H       0.019526
     7   H       0.019526
     8   H       0.095626
     9   H       0.019454
    10   H       0.019620
    11   H       0.095626
    12   H       0.019454
    13   H       0.019620

 Total charge composition:

   CEN ATOM         s          p       ELECTRONS ->P.CHARGE
     1   H       0.87052                 0.87052    0.12948
     2   C       2.98460    3.34899      6.33360   -0.33360
     3   C       3.02311    3.13614      6.15925   -0.15925
     4   C       2.98459    3.34898      6.33357   -0.33357
     5   C       2.98459    3.34898      6.33357   -0.33357
     6   H       0.87142                 0.87142    0.12858
     7   H       0.87142                 0.87142    0.12858
     8   H       0.87052                 0.87052    0.12948
     9   H       0.87140                 0.87140    0.12860
    10   H       0.87141                 0.87141    0.12859
    11   H       0.87052                 0.87052    0.12948
    12   H       0.87140                 0.87140    0.12860
    13   H       0.87141                 0.87141    0.12859

 Total charge composition, AO contributions:

   CEN ATOM SHL      SPHERICAL COMPONENTS
     1   H  1s       0.87052

     2   C  1s       1.99164
     2   C  2s       0.99297
     2   C  2p       1.08012    1.10690    1.16198

     3   C  1s       1.99295
     3   C  2s       1.03016
     3   C  2p       1.03740    1.07267    1.02607

     4   C  1s       1.99164
     4   C  2s       0.99295
     4   C  2p       1.12832    1.14200    1.07866

     5   C  1s       1.99164
     5   C  2s       0.99295
     5   C  2p       1.12832    1.14200    1.07866

     6   H  1s       0.87142

     7   H  1s       0.87142

     8   H  1s       0.87052

     9   H  1s       0.87140

    10   H  1s       0.87141

    11   H  1s       0.87052

    12   H  1s       0.87140

    13   H  1s       0.87141

 Active orbital charges:

   CEN ATOM         s          p       ELECTRONS ->SPIN.DEN
     1   H       0.05036                 0.05036    0.05036
     2   C       0.00018    0.01004      0.01021    0.01021
     3   C       0.01099    0.74816      0.75914    0.75914
     4   C       0.00018    0.01003      0.01020    0.01020
     5   C       0.00018    0.01003      0.01020    0.01020
     6   H       0.00986                 0.00986    0.00986
     7   H       0.00986                 0.00986    0.00986
     8   H       0.05035                 0.05035    0.05035
     9   H       0.00982                 0.00982    0.00982
    10   H       0.00991                 0.00991    0.00991
    11   H       0.05035                 0.05035    0.05035
    12   H       0.00982                 0.00982    0.00982
    13   H       0.00991                 0.00991    0.00991

 Active orbital charges, AO contributions:

   CEN ATOM SHL      SPHERICAL COMPONENTS
     1   H  1s       0.05036

     2   C  1s       0.00000
     2   C  2s       0.00017
     2   C  2p       0.00029    0.00975    0.00000

     3   C  1s       0.00002
     3   C  2s       0.01097
     3   C  2p       0.14642    0.60174    0.00000

     4   C  1s       0.00000
     4   C  2s       0.00018
     4   C  2p       0.00305    0.00637    0.00061

     5   C  1s       0.00000
     5   C  2s       0.00018
     5   C  2p       0.00305    0.00637    0.00061

     6   H  1s       0.00986

     7   H  1s       0.00986

     8   H  1s       0.05035

     9   H  1s       0.00982

    10   H  1s       0.00991

    11   H  1s       0.05035

    12   H  1s       0.00982

    13   H  1s       0.00991

 Summary of localized orbital composition:   [THRPRINT= 0.020]

   ORB  GRP  ORB.ENERGY      CENTERS/CHARGES
     1   1    -9.895968      C  2   2.000
     2   1    -9.895957      C  4   2.000
     3   1    -9.895957      C  5   2.000
     4   1    -9.880100      C  3   2.000
     5   1    -0.540469      C  3   1.014   C  5   0.974
     6   1    -0.540469      C  3   1.014   C  4   0.974
     7   1    -0.540443      C  3   1.014   C  2   0.974
     8   1    -0.464885      C  2   1.097   H  1   0.813   C  3   0.083
     9   1    -0.464883      C  5   1.097   H 11   0.813   C  3   0.083
    10   1    -0.464883      C  4   1.097   H  8   0.813   C  3   0.083
    11   1    -0.460635      C  4   1.122   H  9   0.855   (other: 0.023)
    12   1    -0.460635      C  5   1.122   H 12   0.855   (other: 0.023)
    13   1    -0.460635      C  2   1.122   H  7   0.855   (other: 0.023)
    14   1    -0.460635      C  2   1.122   H  6   0.855   (other: 0.023)
    15   1    -0.460601      C  4   1.122   H 10   0.855   (other: 0.023)
    16   1    -0.460601      C  5   1.122   H 13   0.855   (other: 0.023)
    17   2    -0.015144      C  3   0.759   H  1   0.050   H 11   0.050   H  8   0.050   (other: 0.090)

 Localized orbitals saved to record      2200.2  (orbital set 4)


 **********************************************************************************************************************************
 DATASETS  * FILE   NREC   LENGTH (MB)   RECORD NAMES
              1      20       32.07       500      610      700      900      950      970     1000      129      960     1100   
                                          VAR    BASINP    GEOM    SYMINP    ZMAT    AOBASIS   BASIS     P2S    ABASIS      S 
                                         1400     1410     1200     1210     1080     1600     1650     1300     1700     1800   
                                           T        V       H0       H01     AOSYM     SMH    MOLCAS    ERIS     OPER     GRID   

              2       5        3.01       700     1000      520     1800     2200   
                                         GEOM     BASIS   MCVARS    GRID      UKS  

 PROGRAMS   *        TOTAL      IBBA       UKS       INT
 CPU TIMES  *         4.80      0.04      4.30      0.32
 REAL TIME  *         6.32 SEC
 DISK USED  *        35.68 MB      
 **********************************************************************************************************************************
 Molecular orbitals read from record     2200.2  Type=UKS/LOCAL(IBO)  
 Occupation numbers read from record     2200.2  Type=UKS/LOCAL(IBO)  
 Orbital energies read from record       2200.2  Type=UKS/LOCAL(IBO)  
 Redundancy group numbers read from rec  2200.2  Type=UKS/BETA (state 1.1)

 IBBA/STO-3G energy=      0.000000000000

        UKS-SCF 
   -155.86710674
 **********************************************************************************************************************************
 Molpro calculation terminated
