
 Primary working directories    : /local
 Secondary working directories  : /local
 Wavefunction directory         : /local/
 Main file repository           : /local/

 SHA1      : b4a5b34a9e711420743f49e6833241d17c61fb3c
 NAME      : 2099.9.b4a5b34
 ARCHNAME  : linux/x86_64_openmp
 FC        : /cm/shared/languages/GCC-6.1/bin/gfortran
 BLASLIB   : -lblas
 id        : simonbennie

 Nodes     nprocs
 node32-024    1

 Using customized tuning parameters: mindgm=1; mindgv=20; mindgc=4; mindgr=1; noblas=0; minvec=7
 default implementation of scratch files=df  

 memory,500,m
 geomtyp=xyz
 nosym
 noorient
 geometry={
 C         -1.53233        0.02247        0.00000
 C         -0.00192        0.01421        0.00000
 O          0.37239        1.40356        0.00000
 H          1.34248        1.44036        0.00000
 H         -1.92991       -0.99819        0.00000
 H         -1.90797        0.54382       -0.88653
 H         -1.90797        0.54382        0.88653
 C          0.54303       -0.66466       -1.26580
 C          0.54303       -0.66466        1.26580
 H          0.17836       -0.14752       -2.15943
 H          0.17836       -0.14752        2.15943
 H          0.23752       -1.71600       -1.32280
 H          0.23752       -1.71600        1.32280
 H          1.64084       -0.63767       -1.28032
 H          1.64084       -0.63767        1.28032
 }
 basis={ default,tzvp }
 {ks,M06,direct;wf,42,1,0}
 {ibba,bonds=1}

 Variables initialized (895), CPU time= 0.00 sec
 Commands  initialized (725), CPU time= 0.01 sec, 591 directives.
 Default parameters read. Elapsed time= 0.08 sec

 Checking input...
 Passed
1


                                         ***  PROGRAM SYSTEM MOLPRO  ***
                                       Copyright, TTI GmbH Stuttgart, 2015
                                    Version 2099.9 linked May 26 2017 16:03:21


 **********************************************************************************************************************************
 LABEL *                                                                                 
  64 bit serial version                                                                  DATE: 12-Jun-17          TIME: 19:25:44  
 **********************************************************************************************************************************

 SHA1:             b4a5b34a9e711420743f49e6833241d17c61fb3c
 **********************************************************************************************************************************
 SETTING GEOMTYP        =    XYZ

 Variable memory set to  500000000 words,  buffer space 

 ZSYMEL=NOSYM

 SETTING BASIS          =    TZVP


 Recomputing integrals since basis changed


 Using spherical harmonics

 Library entry C      S def2-TZVP            selected for orbital group  1
 Library entry C      P def2-TZVP            selected for orbital group  1
 Library entry C      D def2-TZVP            selected for orbital group  1
 Library entry C      F def2-TZVP            selected for orbital group  1
 Library entry O      S def2-TZVP            selected for orbital group  2
 Library entry O      P def2-TZVP            selected for orbital group  2
 Library entry O      D def2-TZVP            selected for orbital group  2
 Library entry O      F def2-TZVP            selected for orbital group  2
 Library entry H      S def2-TZVP            selected for orbital group  3
 Library entry H      P def2-TZVP            selected for orbital group  3


 PROGRAM * SEWARD (Integral evaluation for generally contracted gaussian basis sets)     Author: Roland Lindh, 1990

 Geometry written to block  1 of record 700


 Point group  C1  



 ATOMIC COORDINATES

 NR  ATOM    CHARGE       X              Y              Z

   1  C       6.00   -2.895684032    0.042462146    0.000000000
   2  C       6.00   -0.003628274    0.026853008    0.000000000
   3  O       8.00    0.703715112    2.652343999    0.000000000
   4  H       1.00    2.536919528    2.721885921    0.000000000
   5  H       1.00   -3.647001345   -1.886305720    0.000000000
   6  H       1.00   -3.605540754    1.027670861   -1.675298901
   7  H       1.00   -3.605540754    1.027670861    1.675298901
   8  C       6.00    1.026177977   -1.256025366   -2.392015328
   9  C       6.00    1.026177977   -1.256025366    2.392015328
  10  H       1.00    0.337051552   -0.278772398   -4.080731285
  11  H       1.00    0.337051552   -0.278772398    4.080731285
  12  H       1.00    0.448847749   -3.242770030   -2.499729718
  13  H       1.00    0.448847749   -3.242770030    2.499729718
  14  H       1.00    3.100738214   -1.205021658   -2.419454152
  15  H       1.00    3.100738214   -1.205021658    2.419454152

 Bond lengths in Bohr (Angstrom)

 1-2  2.892097881  1-5  2.069933136  1-6  2.069096224  1-7  2.069096224  2-3  2.719106031
     ( 1.530432290)     ( 1.095361444)     ( 1.094918569)     ( 1.094918569)     ( 1.438888946)

  2- 8  2.903104402   2- 9  2.903104402   3- 4  1.834522965   8-10  2.069222119   8-12  2.071730422
       ( 1.536256691)       ( 1.536256691)       ( 0.970787746)       ( 1.094985190)       ( 1.096312526)

  8-14  2.075368508   9-11  2.069222119   9-13  2.071730422   9-15  2.075368508
       ( 1.098237719)       ( 1.094985190)       ( 1.096312526)       ( 1.098237719)

 Bond angles

  1-2-3  104.76902697   1-2-8  110.92255387   1-2-9  110.92255387   2-1-5  110.97328220

  2- 1- 6  110.22090701   2- 1- 7  110.22090701   2- 3- 4  107.25071562   2- 8-10  110.21836376

  2- 8-12  111.57747468   2- 8-14  110.77023896   2- 9-11  110.21836376   2- 9-13  111.57747468

  2- 9-15  110.77023896   3- 2- 8  109.53648747   3- 2- 9  109.53648747   5- 1- 6  108.61190457

  5- 1- 7  108.61190457   6- 1- 7  108.12870271   8- 2- 9  110.96453384  10- 8-12  108.52192632

 10- 8-14  108.08997829  11- 9-13  108.52192632  11- 9-15  108.08997829  12- 8-14  107.54424578

 13- 9-15  107.54424578

 NUCLEAR CHARGE:                   42
 NUMBER OF PRIMITIVE AOS:         335
 NUMBER OF SYMMETRY AOS:          310
 NUMBER OF CONTRACTIONS:          215   ( 215A   )
 NUMBER OF CORE ORBITALS:           5   (   5A   )
 NUMBER OF VALENCE ORBITALS:       30   (  30A   )


 NUCLEAR REPULSION ENERGY  198.77359127


 Eigenvalues of metric

         1 0.262E-03 0.510E-03 0.539E-03 0.594E-03 0.697E-03 0.755E-03 0.210E-02 0.239E-02


 Contracted 2-electron integrals neglected if value below      1.0D-11
 AO integral compression algorithm  1   Integral accuracy      1.0D-11

     977.797 MB (compressed) written to integral file ( 41.7%)


 NUMBER OF SORTED TWO-ELECTRON INTEGRALS:  269595810.     BUFFER LENGTH:  32768
 NUMBER OF SEGMENTS:  17  SEGMENT LENGTH:   15999762      RECORD LENGTH: 524288

 Memory used in sort:      16.56 MW

 SORT1 READ   292827432. AND WROTE   238500613. INTEGRALS IN    690 RECORDS. CPU TIME:     3.33 SEC, REAL TIME:     6.44 SEC
 SORT2 READ   238500613. AND WROTE   269595810. INTEGRALS IN   3730 RECORDS. CPU TIME:     5.27 SEC, REAL TIME:     6.66 SEC

 FILE SIZES:   FILE 1:  1009.7 MBYTE,  FILE 4:  2894.1 MBYTE,   TOTAL:   3903.8 MBYTE

 OPERATOR DM      FOR CENTER  0  COORDINATES:    0.000000    0.000000    0.000000


 **********************************************************************************************************************************
 DATASETS  * FILE   NREC   LENGTH (MB)   RECORD NAMES
              1      19      926.27       500      610      700      900      950      970     1000      129      960     1100   
                                          VAR    BASINP    GEOM    SYMINP    ZMAT    AOBASIS   BASIS     P2S    ABASIS      S 
                                         1400     1410     1200     1210     1080     1600     1650     1300     1700   
                                           T        V       H0       H01     AOSYM     SMH    MOLCAS    ERIS     OPER   

 PROGRAMS   *        TOTAL       INT
 CPU TIMES  *        24.53     24.39
 REAL TIME  *        32.56 SEC
 DISK USED  *         3.90 GB      
 **********************************************************************************************************************************

 Density functional group M06=XC-M06
 Functional: XC-M06(via MFM 1.6)                                               Gradient terms: 1
 Use grid at  1800.2


 Exact exchange will be calculated, factor:  0.2700

 Functional: XC-M06                    Factor:  1.0000

 Generated new metagrid on record  1800.2 with target accuracy 1.0D-06 and 54596 points in CPU time    1.5
 Computed new grid on record 1800.1 in CPU time    1.7
  175219 words reserved for DFT integration

 PROGRAM * RKS-SCF (Restricted closed shell Kohn-Sham)     Authors: W. Meyer, H.-J. Werner, P.J. Knowles, 1993

 NUMBER OF ELECTRONS:      21+   21-    SPACE SYMMETRY=1    SPIN SYMMETRY: Singlet 
 CONVERGENCE THRESHOLDS:    1.00E-05 (Density)    1.00E-06 (Energy)
 MAX. NUMBER OF ITERATIONS:       60
 INTERPOLATION TYPE:            DIIS
 INTERPOLATION STEPS:              2 (START)      1 (STEP)
 LEVEL SHIFTS:                  0.00 (CLOSED)  0.00 (OPEN) 



 Use fine grid record 1800.2 for energy threshold  1.0D-06
 Orbital guess generated from atomic densities. Full valence occupancy:   21

 Molecular orbital dump at record        2100.2

 Initial occupancy:  21

 ITERATION    DDIFF          GRAD             ENERGY        2-EL.EN.            DIPOLE MOMENTS         DIIS   ORB.
    1      0.000D+00      0.000D+00      -233.38847245    619.208680    0.70566   -0.85726    0.00000    0    start
    2      0.000D+00      0.716D-02      -233.27820067    585.957589   -0.13893    0.02121    0.00000    1    diag
    3      0.122D-01      0.928D-02      -233.59665442    605.029975    0.38266   -0.58398    0.00000    2    diag
    4      0.808D-02      0.907D-03      -233.59901851    604.455489    0.35620   -0.46955    0.00000    3    diag
    5      0.673D-03      0.332D-03      -233.59931706    604.499280    0.35887   -0.52137    0.00000    4    diag
    6      0.427D-03      0.848D-04      -233.59933060    604.617335    0.36054   -0.50857    0.00000    5    diag
    7      0.894D-04      0.612D-04      -233.59934286    604.575361    0.36048   -0.51088    0.00000    6    diag
    8      0.277D-04      0.523D-05      -233.59934296    604.580408    0.36033   -0.51255    0.00000    7    diag
    9      0.493D-05      0.136D-05      -233.59934296    604.581240    0.36049   -0.51161    0.00000    0    orth

 Final occupancy:  21

 !RKS STATE 1.1 Energy               -233.599342959201
 Nuclear energy                       198.77359127
 One-electron energy                 -709.53977992
 Two-electron energy                  302.29062012
 SCF exchange energy                  -32.50786185     Factor= 0.2700
 Density functional                   -25.12377443     XC-M06=-25.12377443
 Virial quotient                       -1.00553014
 !RKS STATE 1.1 Dipole moment           0.36049326    -0.51160885     0.00000000
 Dipole moment /Debye                   0.91622245    -1.30029482     0.00000000

 Orbital energies:

         1.1          2.1          3.1          4.1          5.1          6.1          7.1          8.1          9.1         10.1
    -19.202272   -10.299124   -10.229581   -10.229572   -10.224007    -1.040307    -0.800365    -0.703425    -0.702253    -0.580191

        11.1         12.1         13.1         14.1         15.1         16.1         17.1         18.1         19.1         20.1
     -0.502178    -0.464671    -0.461668    -0.425113    -0.410408    -0.392965    -0.379023    -0.369624    -0.362159    -0.334996

        21.1         22.1         23.1
     -0.288453     0.017778     0.061856

 HOMO     21.1    -0.288453 =      -7.8492eV
 LUMO     22.1     0.017778 =       0.4838eV
 LUMO-HOMO         0.306231 =       8.3330eV


 **********************************************************************************************************************************
 DATASETS  * FILE   NREC   LENGTH (MB)   RECORD NAMES
              1      20      928.02       500      610      700      900      950      970     1000      129      960     1100   
                                          VAR    BASINP    GEOM    SYMINP    ZMAT    AOBASIS   BASIS     P2S    ABASIS      S 
                                         1400     1410     1200     1210     1080     1600     1650     1300     1700     1800   
                                           T        V       H0       H01     AOSYM     SMH    MOLCAS    ERIS     OPER     GRID   

              2       5        3.96       700     1000      520     1800     2100   
                                         GEOM     BASIS   MCVARS    GRID      RKS  

 PROGRAMS   *        TOTAL        KS       INT
 CPU TIMES  *       134.35    109.82     24.39
 REAL TIME  *       145.81 SEC
 DISK USED  *         3.90 GB      
 **********************************************************************************************************************************


 PROGRAM * Intrinsic Basis Bonding Analysis (IBBA)          Author: G. Knizia

 Molecular orbitals read from record     2100.2  Type=RKS/CANONICAL (state 1.1)
 Fock matrix read from record            2100.2  Type=RKS/TOTAL (state 1.1)
 Orbital energies read from record       2100.2  Type=RKS/CANONICAL (state 1.1)
 Density matrix read from record         2100.2  Type=RKS/CHARGE (state 1.1)

 Number of core orbitals:           5 (   5 )
 Number of closed-shell orbitals:  16 (  16 )

 Basis set MINAO-AUTO-PP generated.      Number of basis functions:   35 

 Polarized AO type:                A = (O Ot + (1-O)(1-Ot)) P12
 Orthogonalization method:         Symmetric (Loewdin)
 Localization functional:          L = sum[A,i] <i|n_A|i>^4 -> max

 Localization group 1:  21 orbitals, occupancy  2.000
 Iterative localization: IB/PM,    7 iter; Final gradient 0.23E-08

 Bond order analysis:       [THRPRINT= 0.020]

   CEN ATOM   CEN ATOM     WIBERG.BO      RENORM.BO
     1   C  -   2   C       0.995766       0.993307
     1   C  -   5   H       0.964437       0.987807
     1   C  -   6   H       0.959753       0.982492
     1   C  -   7   H       0.959753       0.982492

     2   C  -   1   C       0.995766       0.993307
     2   C  -   9   C       0.994585       0.976238
     2   C  -   8   C       0.994585       0.976238
     2   C  -   3   O       0.928920       0.951759

     3   O  -   2   C       0.928920       0.951759
     3   O  -   4   H       0.858309       0.977579
     3   O  -   8   C       0.026835       0.013698
     3   O  -   9   C       0.026835       0.013698

     4   H  -   3   O       0.858309       0.977579

     5   H  -   1   C       0.964437       0.987807

     6   H  -   1   C       0.959753       0.982492

     7   H  -   1   C       0.959753       0.982492

     8   C  -   2   C       0.994585       0.976238
     8   C  -  14   H       0.963824       0.983104
     8   C  -  12   H       0.960198       0.982424
     8   C  -  10   H       0.960021       0.982275
     8   C  -   3   O       0.026835       0.013698

     9   C  -   2   C       0.994585       0.976238
     9   C  -  15   H       0.963824       0.983104
     9   C  -  13   H       0.960198       0.982424
     9   C  -  11   H       0.960021       0.982275
     9   C  -   3   O       0.026835       0.013698

    10   H  -   8   C       0.960021       0.982275

    11   H  -   9   C       0.960021       0.982275

    12   H  -   8   C       0.960198       0.982424

    13   H  -   9   C       0.960198       0.982424

    14   H  -   8   C       0.963824       0.983104

    15   H  -   9   C       0.963824       0.983104


 Valency analysis:

   CEN ATOM   TOT.VALENCE
     1   C       3.937392
     2   C       3.924516
     3   O       1.904572
     4   H       0.876983
     5   H       0.982254
     6   H       0.979693
     7   H       0.979693
     8   C       3.939674
     9   C       3.939674
    10   H       0.979608
    11   H       0.979608
    12   H       0.981407
    13   H       0.981407
    14   H       0.983718
    15   H       0.983718

 Total charge composition:

   CEN ATOM         s          p       ELECTRONS ->P.CHARGE
     1   C       3.03808    3.37536      6.41344   -0.41344
     2   C       2.92967    2.79445      5.72412    0.27588
     3   O       3.65356    4.93669      8.59025   -0.59025
     4   H       0.64926                 0.64926    0.35074
     5   H       0.86678                 0.86678    0.13322
     6   H       0.85750                 0.85750    0.14250
     7   H       0.85750                 0.85750    0.14250
     8   C       3.04439    3.38295      6.42733   -0.42733
     9   C       3.04439    3.38295      6.42733   -0.42733
    10   H       0.85720                 0.85720    0.14280
    11   H       0.85720                 0.85720    0.14280
    12   H       0.86365                 0.86365    0.13635
    13   H       0.86365                 0.86365    0.13635
    14   H       0.87240                 0.87240    0.12760
    15   H       0.87240                 0.87240    0.12760

 Total charge composition, AO contributions:

   CEN ATOM SHL      SPHERICAL COMPONENTS
     1   C  1s       1.99143
     1   C  2s       1.04664
     1   C  2p       1.04377    1.16005    1.17154

     2   C  1s       1.99303
     2   C  2s       0.93664
     2   C  2p       1.00660    0.77928    1.00857

     3   O  1s       1.99719
     3   O  2s       1.65637
     3   O  2p       1.47904    1.50017    1.95749

     4   H  1s       0.64926

     5   H  1s       0.86678

     6   H  1s       0.85750

     7   H  1s       0.85750

     8   C  1s       1.99153
     8   C  2s       1.05286
     8   C  2p       1.14291    1.14298    1.09706

     9   C  1s       1.99153
     9   C  2s       1.05286
     9   C  2p       1.14291    1.14298    1.09706

    10   H  1s       0.85720

    11   H  1s       0.85720

    12   H  1s       0.86365

    13   H  1s       0.86365

    14   H  1s       0.87240

    15   H  1s       0.87240

 Summary of localized orbital composition:   [THRPRINT= 0.020]

   ORB  GRP  ORB.ENERGY      CENTERS/CHARGES
     1   1   -19.038651      O  3   2.000
     2   1   -10.207450      C  2   2.000
     3   1   -10.114571      C  8   2.000
     4   1   -10.114571      C  9   2.000
     5   1   -10.108203      C  1   2.000
     6   1    -0.777591      O  3   1.352   H  4   0.638
     7   1    -0.735595      O  3   1.295   C  2   0.688
     8   1    -0.601449      O  3   1.982
     9   1    -0.588039      C  8   1.010   C  2   0.975
    10   1    -0.588039      C  9   1.010   C  2   0.975
    11   1    -0.587840      C  1   0.993   C  2   0.984   (other: 0.023)
    12   1    -0.517995      C  9   1.132   H 13   0.854
    13   1    -0.517995      C  8   1.132   H 12   0.854
    14   1    -0.516347      C  9   1.123   H 15   0.865
    15   1    -0.516347      C  8   1.123   H 14   0.865
    16   1    -0.514171      C  1   1.127   H  5   0.860
    17   1    -0.511596      C  8   1.140   H 10   0.849
    18   1    -0.511596      C  9   1.140   H 11   0.849
    19   1    -0.506278      C  1   1.139   H  7   0.850
    20   1    -0.506278      C  1   1.139   H  6   0.850
    21   1    -0.321755      O  3   1.957   (other: 0.043)

 Localized orbitals saved to record      2100.2  (orbital set 2)


 **********************************************************************************************************************************
 DATASETS  * FILE   NREC   LENGTH (MB)   RECORD NAMES
              1      20      928.02       500      610      700      900      950      970     1000      129      960     1100   
                                          VAR    BASINP    GEOM    SYMINP    ZMAT    AOBASIS   BASIS     P2S    ABASIS      S 
                                         1400     1410     1200     1210     1080     1600     1650     1300     1700     1800   
                                           T        V       H0       H01     AOSYM     SMH    MOLCAS    ERIS     OPER     GRID   

              2       5        4.33       700     1000      520     1800     2100   
                                         GEOM     BASIS   MCVARS    GRID      RKS  

 PROGRAMS   *        TOTAL      IBBA        KS       INT
 CPU TIMES  *       134.41      0.06    109.82     24.39
 REAL TIME  *       145.98 SEC
 DISK USED  *         3.90 GB      
 **********************************************************************************************************************************
 Molecular orbitals read from record     2100.2  Type=RKS/LOCAL(IBO)  
 Occupation numbers read from record     2100.2  Type=RKS/LOCAL(IBO)  
 Orbital energies read from record       2100.2  Type=RKS/LOCAL(IBO)  
 Redundancy group numbers read from rec  2100.2  Type=RKS/LOCAL(IBO)  

 IBBA/TZVP energy=      0.000000000000

        KS-SCF  
   -233.59934296
 **********************************************************************************************************************************
 Molpro calculation terminated
