
 Primary working directories    : /tmp/sb13343
 Secondary working directories  : /tmp/sb13343
 Wavefunction directory         : /panfs/panasas01/chem/sb13343/wfu/
 Main file repository           : /tmp/sb13343/

 SHA1      : b4a5b34a9e711420743f49e6833241d17c61fb3c
 NAME      : 2099.9.b4a5b34
 ARCHNAME  : linux/x86_64_openmp
 FC        : /cm/shared/languages/GCC-6.1/bin/gfortran
 BLASLIB   : -lblas
 id        : simonbennie

 Nodes     nprocs
 node32-029    1

 Using customized tuning parameters: mindgm=1; mindgv=20; mindgc=4; mindgr=1; noblas=0; minvec=7
 default implementation of scratch files=df  

 memory,500,m
 geomtyp=xyz
 nosym
 noorient
 geometry={
 C          0.00000        0.00000        0.00000
 C          0.00000        0.00000        1.53307
 O          1.40344        0.00000        1.86307
 C          1.76314        0.00000        3.22887
 H         -1.02289        0.00000       -0.39176
 H          0.51995       -0.88625       -0.37815
 H          0.51995        0.88625       -0.37815
 H          2.85677        0.00000        3.25413
 H          1.40708       -0.89217        3.76475
 H          1.40708        0.89217        3.76475
 C         -0.69252       -1.26694        2.06222
 C         -0.69252        1.26694        2.06222
 H         -0.15366       -2.16088        1.72982
 H         -0.15366        2.16088        1.72982
 H         -1.72011       -1.32515        1.68649
 H         -1.72011        1.32515        1.68649
 H         -0.74365       -1.28188        3.15638
 H         -0.74365        1.28188        3.15638
 }
 basis={ default,svp }
 {uks,VWN80,direct;wf,50,1,0}
 {ibba,bonds=1}

 Variables initialized (895), CPU time= 0.01 sec
 Commands  initialized (725), CPU time= 0.01 sec, 591 directives.
 Default parameters read. Elapsed time= 0.08 sec

 Checking input...
 Passed
1


                                         ***  PROGRAM SYSTEM MOLPRO  ***
                                       Copyright, TTI GmbH Stuttgart, 2015
                                    Version 2099.9 linked May 26 2017 16:03:21


 **********************************************************************************************************************************
 LABEL *                                                                                 
  64 bit serial version                                                                  DATE: 09-Jun-17          TIME: 02:02:04  
 **********************************************************************************************************************************

 SHA1:             b4a5b34a9e711420743f49e6833241d17c61fb3c
 **********************************************************************************************************************************
 SETTING GEOMTYP        =    XYZ

 Variable memory set to  500000000 words,  buffer space 

 ZSYMEL=NOSYM

 SETTING BASIS          =    SVP


 Recomputing integrals since basis changed


 Using spherical harmonics

 Library entry C      S def2-SVP             selected for orbital group  1
 Library entry C      P def2-SVP             selected for orbital group  1
 Library entry C      D def2-SVP             selected for orbital group  1
 Library entry O      S def2-SVP             selected for orbital group  2
 Library entry O      P def2-SVP             selected for orbital group  2
 Library entry O      D def2-SVP             selected for orbital group  2
 Library entry H      S def2-SVP             selected for orbital group  4
 Library entry H      P def2-SVP             selected for orbital group  4


 PROGRAM * SEWARD (Integral evaluation for generally contracted gaussian basis sets)     Author: Roland Lindh, 1990

 Geometry written to block  1 of record 700


 Point group  C1  



 ATOMIC COORDINATES

 NR  ATOM    CHARGE       X              Y              Z

   1  C       6.00    0.000000000    0.000000000    0.000000000
   2  C       6.00    0.000000000    0.000000000    2.897082430
   3  O       8.00    2.652117232    0.000000000    3.520692051
   4  C       6.00    3.331851719    0.000000000    6.101679992
   5  H       1.00   -1.932981956    0.000000000   -0.740319107
   6  H       1.00    0.982563098   -1.674769778   -0.714599934
   7  H       1.00    0.982563098    1.674769778   -0.714599934
   8  H       1.00    5.398512901    0.000000000    6.149414474
   9  H       1.00    2.658995835   -1.685956957    7.114346427
  10  H       1.00    2.658995835    1.685956957    7.114346427
  11  C       6.00   -1.308673136   -2.394169616    3.897031009
  12  C       6.00   -1.308673136    2.394169616    3.897031009
  13  H       1.00   -0.290375316   -4.083471388    3.268886045
  14  H       1.00   -0.290375316    4.083471388    3.268886045
  15  H       1.00   -3.250536804   -2.504170574    3.187004212
  16  H       1.00   -3.250536804    2.504170574    3.187004212
  17  H       1.00   -1.405294833   -2.422402125    5.964693745
  18  H       1.00   -1.405294833    2.422402125    5.964693745

 Bond lengths in Bohr (Angstrom)

 1-2  2.897082430  1-5  2.069901355  1-6  2.069042560  1-7  2.069042560  2-3  2.724447609
     ( 1.533070000)     ( 1.095344626)     ( 1.094890171)     ( 1.094890171)     ( 1.441715587)

  2-11  2.905954351   2-12  2.905954351   3- 4  2.668995640   4- 8  2.067212379   4- 9  2.078624355
       ( 1.537764818)       ( 1.537764818)       ( 1.412371669)       ( 1.093921681)       ( 1.099960639)

  4-10  2.078624355  11-13  2.070081404  11-15  2.070524757  11-17  2.070111596  12-14  2.070081404
       ( 1.099960639)       ( 1.095439904)       ( 1.095674516)       ( 1.095455880)       ( 1.095439904)

 12-16  2.070524757  12-18  2.070111596
       ( 1.095674516)       ( 1.095455880)

 Bond angles

  1- 2- 3  103.23196371   1- 2-11  110.12706952   1- 2-12  110.12706952   2- 1- 5  110.95650426

  2- 1- 6  110.20481748   2- 1- 7  110.20481748   2- 3- 4  117.98647004   2-11-13  110.26679927

  2-11-15  110.37287188   2-11-17  112.08316935   2-12-14  110.26679927   2-12-16  110.37287188

  2-12-18  112.08316935   3- 2-11  111.07703285   3- 2-12  111.07703285   3- 4- 8  106.07765410

  3- 4- 9  112.87219182   3- 4-10  112.87219182   5- 1- 6  108.65976572   5- 1- 7  108.65976572

  6- 1- 7  108.08288210   8- 4- 9  108.20190897   8- 4-10  108.20190897   9- 4-10  108.40564999

 11- 2-12  110.95103964  13-11-15  108.29648994  13-11-17  108.35544687  14-12-16  108.29648994

 14-12-18  108.35544687  15-11-17  107.33851825  16-12-18  107.33851825

 NUCLEAR CHARGE:                   50
 NUMBER OF PRIMITIVE AOS:         234
 NUMBER OF SYMMETRY AOS:          228
 NUMBER OF CONTRACTIONS:          144   ( 144A   )
 NUMBER OF CORE ORBITALS:           6   (   6A   )
 NUMBER OF VALENCE ORBITALS:       36   (  36A   )


 NUCLEAR REPULSION ENERGY  270.15500869


 Eigenvalues of metric

         1 0.176E-02 0.508E-02 0.513E-02 0.102E-01 0.124E-01 0.215E-01 0.221E-01 0.252E-01


 Contracted 2-electron integrals neglected if value below      1.0D-11
 AO integral compression algorithm  1   Integral accuracy      1.0D-11

     186.384 MB (compressed) written to integral file ( 41.3%)


 NUMBER OF SORTED TWO-ELECTRON INTEGRALS:   54502020.     BUFFER LENGTH:  32768
 NUMBER OF SEGMENTS:   4  SEGMENT LENGTH:   15999503      RECORD LENGTH: 524288

 Memory used in sort:      16.56 MW

 SORT1 READ    56333432. AND WROTE    45703433. INTEGRALS IN    132 RECORDS. CPU TIME:     0.83 SEC, REAL TIME:     1.67 SEC
 SORT2 READ    45703433. AND WROTE    54502020. INTEGRALS IN    711 RECORDS. CPU TIME:     1.26 SEC, REAL TIME:     3.88 SEC

 FILE SIZES:   FILE 1:   217.4 MBYTE,  FILE 4:   553.7 MBYTE,   TOTAL:    771.1 MBYTE

 OPERATOR DM      FOR CENTER  0  COORDINATES:    0.000000    0.000000    0.000000


 **********************************************************************************************************************************
 DATASETS  * FILE   NREC   LENGTH (MB)   RECORD NAMES
              1      19      194.45       500      610      700      900      950      970     1000      129      960     1100   
                                          VAR    BASINP    GEOM    SYMINP    ZMAT    AOBASIS   BASIS     P2S    ABASIS      S 
                                         1400     1410     1200     1210     1080     1600     1650     1300     1700   
                                           T        V       H0       H01     AOSYM     SMH    MOLCAS    ERIS     OPER   

 PROGRAMS   *        TOTAL       INT
 CPU TIMES  *         8.11      7.95
 REAL TIME  *        15.54 SEC
 DISK USED  *       771.70 MB      
 **********************************************************************************************************************************

 Density functional group VWN80=VWN5
 Functional: VWN5(Automatically generated (new) VWN5)                          Gradient terms: 0
 Use grid at  1800.2

 Functional: VWN5                      Factor:  1.0000

 Generated new metagrid on record  1800.2 with target accuracy 1.0D-06 and 66012 points in CPU time    2.1
 Computed new grid on record 1800.1 in CPU time    2.4
   63846 words reserved for DFT integration

 PROGRAM * UKS-SCF (Unrestricted Kohn-Sham)     Authors: W. Meyer, H.-J. Werner, P.J. Knowles, 1993

 NUMBER OF ELECTRONS:      25+   25-    SPACE SYMMETRY=1    SPIN SYMMETRY: Singlet 
 CONVERGENCE THRESHOLDS:    1.00E-05 (Density)    1.00E-06 (Energy)
 MAX. NUMBER OF ITERATIONS:       60
 INTERPOLATION TYPE:            DIIS
 INTERPOLATION STEPS:              2 (START)      1 (STEP)
 LEVEL SHIFTS:                 -0.20 (ALPHA)  -0.20 (BETA) 



 Use fine grid record 1800.2 for energy threshold  1.0D-06
 Orbital guess generated from atomic densities. Full valence occupancy:   25

 Molecular orbital dump at record        2200.2

 Initial alpha occupation  25
 Initial beta  occupation  25

 ITERATION    DDIFF          GRAD             ENERGY        2-EL.EN.            DIPOLE MOMENTS         DIIS
    1      0.000D+00      0.000D+00      -235.44705646    735.718089    2.79682   -0.00000    0.01941    0
    2      0.103D+00      0.118D-01      -235.02683200    803.979730   -2.29607    0.00000    1.18311    1
    3      0.228D-01      0.155D-01      -236.66914118    773.827083   -0.20929   -0.00000    0.37368    2
    4      0.483D-02      0.144D-02      -236.69118097    768.985437    0.01613   -0.00000    0.27895    3
    5      0.360D-02      0.680D-03      -236.69708205    770.008202    0.04754   -0.00000    0.21585    4
    6      0.591D-02      0.218D-03      -236.70052131    769.943439    0.01657   -0.00000    0.15511    5
    7      0.207D-02      0.918D-04      -236.70100057    770.024899    0.03472   -0.00000    0.12920    6
    8      0.904D-03      0.650D-04      -236.70111121    770.050712    0.02418   -0.00000    0.11754    7
    9      0.347D-03      0.209D-04      -236.70112681    770.089557    0.01716   -0.00000    0.11621    8
   10      0.142D-03      0.667D-05      -236.70112896    770.078677    0.01781   -0.00000    0.11367    7
   11      0.472D-04      0.398D-05      -236.70112931    770.083505    0.01800   -0.00000    0.11360    8
   12      0.159D-04      0.107D-05      -236.70112935    770.082835    0.01768   -0.00000    0.11361    9
   13      0.615D-05      0.410D-06      -236.70112936    770.082717    0.01778   -0.00000    0.11367    8
   14      0.269D-05      0.238D-06      -236.70112936    770.082744    0.01779   -0.00000    0.11366    9

 Final alpha occupancy:  25
 Final beta  occupancy:  25

 !UKS STATE 1.1 Energy               -236.701129360179
 Nuclear energy                       270.15500869
 One-electron energy                 -888.83332066
 Two-electron energy                  385.04137179
 Density functional                    -3.06418919     VWN5=-3.06418919
 Virial quotient                       -0.93106147
 !UKS STATE 1.1 Dipole moment           0.01779476    -0.00000000     0.11366359
 Dipole moment /Debye                   0.04522680    -0.00000000     0.28888510

 Orbital energies for positive spin:

         1.1          2.1          3.1          4.1          5.1          6.1          7.1          8.1          9.1         10.1
    -16.643594    -8.282835    -8.277463    -8.248856    -8.248452    -8.243636    -0.612652    -0.425903    -0.334021    -0.324915

        11.1         12.1         13.1         14.1         15.1         16.1         17.1         18.1         19.1         20.1
     -0.297795    -0.203946    -0.173202    -0.156795    -0.153630    -0.126812    -0.106619    -0.087323    -0.065529    -0.057900

        21.1         22.1         23.1         24.1         25.1         26.1         27.1
     -0.045614    -0.037854    -0.037449     0.026363     0.067170     0.171351     0.207458

 Orbital energies for negative spin:

         1.1          2.1          3.1          4.1          5.1          6.1          7.1          8.1          9.1         10.1
    -16.643594    -8.282835    -8.277463    -8.248856    -8.248452    -8.243636    -0.612652    -0.425903    -0.334021    -0.324915

        11.1         12.1         13.1         14.1         15.1         16.1         17.1         18.1         19.1         20.1
     -0.297795    -0.203946    -0.173202    -0.156795    -0.153630    -0.126812    -0.106619    -0.087323    -0.065529    -0.057900

        21.1         22.1         23.1         24.1         25.1         26.1         27.1
     -0.045614    -0.037854    -0.037449     0.026363     0.067170     0.171351     0.207458

 HOMO     25.1     0.067170 =       1.8278eV
 LUMO     26.1     0.171351 =       4.6627eV
 LUMO-HOMO         0.104181 =       2.8349eV

 EXPECTATION VALUE OF S**2:            -0.00000000

 Natural orbitals saved to record    2200.2 (Orbital set 3)

 Orbital spaces for UNO-CAS (Min. occupation: 0.020  Max. occupation: 1.980):

 Closed:       25
 Active:        0


 **********************************************************************************************************************************
 DATASETS  * FILE   NREC   LENGTH (MB)   RECORD NAMES
              1      20      196.57       500      610      700      900      950      970     1000      129      960     1100   
                                          VAR    BASINP    GEOM    SYMINP    ZMAT    AOBASIS   BASIS     P2S    ABASIS      S 
                                         1400     1410     1200     1210     1080     1600     1650     1300     1700     1800   
                                           T        V       H0       H01     AOSYM     SMH    MOLCAS    ERIS     OPER     GRID   

              2       5        3.91       700     1000      520     1800     2200   
                                         GEOM     BASIS   MCVARS    GRID      UKS  

 PROGRAMS   *        TOTAL       UKS       INT
 CPU TIMES  *        35.66     27.54      7.95
 REAL TIME  *        43.89 SEC
 DISK USED  *       771.70 MB      
 **********************************************************************************************************************************


 PROGRAM * Intrinsic Basis Bonding Analysis (IBBA)          Author: G. Knizia

 Molecular orbitals read from record     2200.2  Type=UKS/ALPHA (state 1.1)
 Fock matrix read from record            2200.2  Type=UKS/TOTAL (state 1.1)
 Orbital energies read from record       2200.2  Type=UKS/ALPHA (state 1.1)
 Density matrix read from record         2200.2  Type=UKS/CHARGE (state 1.1)

 Number of core orbitals:           6 (   6 )
 Number of closed-shell orbitals:  19 (  19 )

 Basis set MINAO-AUTO-PP generated.      Number of basis functions:   42 

 Polarized AO type:                A = (O Ot + (1-O)(1-Ot)) P12
 Orthogonalization method:         Symmetric (Loewdin)
 Localization functional:          L = sum[A,i] <i|n_A|i>^4 -> max

 Localization group 1:  25 orbitals, occupancy  2.000
 Iterative localization: IB/PM,    7 iter; Final gradient 0.97E-08

 Bond order analysis:       [THRPRINT= 0.020]

   CEN ATOM   CEN ATOM     WIBERG.BO      RENORM.BO
     1   C  -   2   C       0.986216       0.995342
     1   C  -   5   H       0.955670       0.962757
     1   C  -   6   H       0.949087       0.950269
     1   C  -   7   H       0.949087       0.950269
     1   C  -   3   O       0.037358       0.021619

     2   C  -   1   C       0.986216       0.995342
     2   C  -  11   C       0.978277       0.968370
     2   C  -  12   C       0.978277       0.968370
     2   C  -   3   O       0.960139       0.928736

     3   O  -   4   C       1.086899       1.046009
     3   O  -   2   C       0.960139       0.928736
     3   O  -   9   H       0.061044       0.033658
     3   O  -  10   H       0.061044       0.033658
     3   O  -  12   C       0.040707       0.021955
     3   O  -  11   C       0.040707       0.021955
     3   O  -   1   C       0.037358       0.021619
     3   O  -   5   H       0.022488       0.016374
     3   O  -  16   H       0.021869       0.017404
     3   O  -  15   H       0.021869       0.017404

     4   C  -   3   O       1.086899       1.046009
     4   C  -   8   H       0.958485       0.963188
     4   C  -  10   H       0.919764       0.872943
     4   C  -   9   H       0.919764       0.872943

     5   H  -   1   C       0.955670       0.962757
     5   H  -   3   O       0.022488       0.016374

     6   H  -   1   C       0.949087       0.950269
     6   H  -  12   C       0.023165       0.023608

     7   H  -   1   C       0.949087       0.950269
     7   H  -  11   C       0.023165       0.023608

     8   H  -   4   C       0.958485       0.963188

     9   H  -   4   C       0.919764       0.872943
     9   H  -   3   O       0.061044       0.033658

    10   H  -   4   C       0.919764       0.872943
    10   H  -   3   O       0.061044       0.033658

    11   C  -   2   C       0.978277       0.968370
    11   C  -  15   H       0.953279       0.969767
    11   C  -  13   H       0.949789       0.952754
    11   C  -  17   H       0.948263       0.955424
    11   C  -   3   O       0.040707       0.021955
    11   C  -   7   H       0.023165       0.023608
    11   C  -  14   H       0.022095       0.022515

    12   C  -   2   C       0.978277       0.968370
    12   C  -  16   H       0.953279       0.969767
    12   C  -  14   H       0.949789       0.952754
    12   C  -  18   H       0.948263       0.955424
    12   C  -   3   O       0.040707       0.021955
    12   C  -   6   H       0.023165       0.023608
    12   C  -  13   H       0.022095       0.022515

    13   H  -  11   C       0.949789       0.952754
    13   H  -  12   C       0.022095       0.022515

    14   H  -  12   C       0.949789       0.952754
    14   H  -  11   C       0.022095       0.022515

    15   H  -  11   C       0.953279       0.969767
    15   H  -   3   O       0.021869       0.017404

    16   H  -  12   C       0.953279       0.969767
    16   H  -   3   O       0.021869       0.017404

    17   H  -  11   C       0.948263       0.955424

    18   H  -  12   C       0.948263       0.955424


 Valency analysis:

   CEN ATOM   TOT.VALENCE
     1   C       3.967763
     2   C       3.949675
     3   O       2.399695
     4   C       3.932312
     5   H       0.998362
     6   H       0.998367
     7   H       0.998367
     8   H       0.997754
     9   H       0.999955
    10   H       0.999955
    11   C       3.961254
    12   C       3.961254
    13   H       0.998340
    14   H       0.998340
    15   H       0.997377
    16   H       0.997377
    17   H       0.997914
    18   H       0.997914

 Total charge composition:

   CEN ATOM         s          p       ELECTRONS ->P.CHARGE
     1   C       2.91315    3.24712      6.16027   -0.16027
     2   C       2.84258    2.91989      5.76247    0.23753
     3   O       3.48804    4.64006      8.12810   -0.12810
     4   C       2.88967    3.13995      6.02962   -0.02962
     5   H       0.95952                 0.95952    0.04048
     6   H       0.95959                 0.95959    0.04041
     7   H       0.95959                 0.95959    0.04041
     8   H       0.95261                 0.95261    0.04739
     9   H       0.99329                 0.99329    0.00671
    10   H       0.99329                 0.99329    0.00671
    11   C       2.90403    3.28443      6.18846   -0.18846
    12   C       2.90403    3.28443      6.18846   -0.18846
    13   H       0.95926                 0.95926    0.04074
    14   H       0.95926                 0.95926    0.04074
    15   H       0.94878                 0.94878    0.05122
    16   H       0.94878                 0.94878    0.05122
    17   H       0.95433                 0.95433    0.04567
    18   H       0.95433                 0.95433    0.04567

 Total charge composition, AO contributions:

   CEN ATOM SHL      SPHERICAL COMPONENTS
     1   C  1s       1.99771
     1   C  2s       0.91543
     1   C  2p       1.10252    1.10981    1.03479

     2   C  1s       1.99830
     2   C  2s       0.84428
     2   C  2p       0.86346    1.02679    1.02964

     3   O  1s       1.99901
     3   O  2s       1.48903
     3   O  2p       1.39320    1.82788    1.41898

     4   C  1s       1.99792
     4   C  2s       0.89175
     4   C  2p       1.11033    1.12862    0.90100

     5   H  1s       0.95952

     6   H  1s       0.95959

     7   H  1s       0.95959

     8   H  1s       0.95261

     9   H  1s       0.99329

    10   H  1s       0.99329

    11   C  1s       1.99774
    11   C  2s       0.90629
    11   C  2p       1.10256    1.07417    1.10770

    12   C  1s       1.99774
    12   C  2s       0.90629
    12   C  2p       1.10256    1.07417    1.10770

    13   H  1s       0.95926

    14   H  1s       0.95926

    15   H  1s       0.94878

    16   H  1s       0.94878

    17   H  1s       0.95433

    18   H  1s       0.95433

 Summary of localized orbital composition:   [THRPRINT= 0.020]

   ORB  GRP  ORB.ENERGY      CENTERS/CHARGES
     1   1   -16.557856      O  3   2.000
     2   1    -8.209724      C  2   2.000
     3   1    -8.207089      C  4   2.000
     4   1    -8.168928      C 11   2.000
     5   1    -8.168928      C 12   2.000
     6   1    -8.163192      C  1   2.000
     7   1    -0.413970      O  3   1.172   C  4   0.818
     8   1    -0.386720      O  3   1.199   C  2   0.765   (other: 0.036)
     9   1    -0.239898      C 11   1.021   C  2   0.946   (other: 0.032)
    10   1    -0.239898      C 12   1.021   C  2   0.946   (other: 0.032)
    11   1    -0.237459      C  1   1.002   C  2   0.962   (other: 0.037)
    12   1    -0.174022      C  4   1.039   H  9   0.954
    13   1    -0.174022      C  4   1.039   H 10   0.954
    14   1    -0.173148      C  4   1.047   H  8   0.940
    15   1    -0.167120      C 12   1.042   H 16   0.934   (other: 0.024)
    16   1    -0.167120      C 11   1.042   H 15   0.934   (other: 0.024)
    17   1    -0.165880      C 12   1.042   H 18   0.937   (other: 0.021)
    18   1    -0.165880      C 11   1.042   H 17   0.937   (other: 0.021)
    19   1    -0.164970      C 12   1.038   H 14   0.943
    20   1    -0.164970      C 11   1.038   H 13   0.943
    21   1    -0.162342      C  1   1.035   H  5   0.945
    22   1    -0.160092      C  1   1.039   H  6   0.942
    23   1    -0.160092      C  1   1.039   H  7   0.942
    24   1    -0.119415      O  3   1.916   (other: 0.084)
    25   1     0.013542      O  3   1.828   C  4   0.044   C  2   0.030   H  9   0.026   H 10   0.026   (other: 0.046)

 Localized orbitals saved to record      2200.2  (orbital set 4)


 **********************************************************************************************************************************
 DATASETS  * FILE   NREC   LENGTH (MB)   RECORD NAMES
              1      20      196.57       500      610      700      900      950      970     1000      129      960     1100   
                                          VAR    BASINP    GEOM    SYMINP    ZMAT    AOBASIS   BASIS     P2S    ABASIS      S 
                                         1400     1410     1200     1210     1080     1600     1650     1300     1700     1800   
                                           T        V       H0       H01     AOSYM     SMH    MOLCAS    ERIS     OPER     GRID   

              2       5        4.08       700     1000      520     1800     2200   
                                         GEOM     BASIS   MCVARS    GRID      UKS  

 PROGRAMS   *        TOTAL      IBBA       UKS       INT
 CPU TIMES  *        35.72      0.07     27.54      7.95
 REAL TIME  *        44.61 SEC
 DISK USED  *       771.70 MB      
 **********************************************************************************************************************************
 Molecular orbitals read from record     2200.2  Type=UKS/LOCAL(IBO)  
 Occupation numbers read from record     2200.2  Type=UKS/LOCAL(IBO)  
 Orbital energies read from record       2200.2  Type=UKS/LOCAL(IBO)  
 Redundancy group numbers read from rec  2200.2  Type=UKS/BETA (state 1.1)

 IBBA/SVP energy=      0.000000000000

        UKS-SCF 
   -236.70112936
 **********************************************************************************************************************************
 Molpro calculation terminated
