
 Primary working directories    : /tmp/sb13343
 Secondary working directories  : /tmp/sb13343
 Wavefunction directory         : /panfs/panasas01/chem/sb13343/wfu/
 Main file repository           : /tmp/sb13343/

 SHA1      : b4a5b34a9e711420743f49e6833241d17c61fb3c
 NAME      : 2099.9.b4a5b34
 ARCHNAME  : linux/x86_64_openmp
 FC        : /cm/shared/languages/GCC-6.1/bin/gfortran
 BLASLIB   : -lblas
 id        : simonbennie

 Nodes     nprocs
 node35-048    1

 Using customized tuning parameters: mindgm=1; mindgv=20; mindgc=4; mindgr=1; noblas=0; minvec=7
 default implementation of scratch files=df  

 memory,500,m
 geomtyp=xyz
 nosym
 noorient
 geometry={
 C         -1.53233        0.02247        0.00000
 C         -0.00192        0.01421        0.00000
 O          0.37239        1.40356        0.00000
 H          1.34248        1.44036        0.00000
 H         -1.92991       -0.99819        0.00000
 H         -1.90797        0.54382       -0.88653
 H         -1.90797        0.54382        0.88653
 C          0.54303       -0.66466       -1.26580
 C          0.54303       -0.66466        1.26580
 H          0.17836       -0.14752       -2.15943
 H          0.17836       -0.14752        2.15943
 H          0.23752       -1.71600       -1.32280
 H          0.23752       -1.71600        1.32280
 H          1.64084       -0.63767       -1.28032
 H          1.64084       -0.63767        1.28032
 }
 basis={ default,sto-3g }
 {ks,B-VWN,direct;wf,42,1,0}
 {ibba,bonds=1}

 Variables initialized (895), CPU time= 0.01 sec
 Commands  initialized (725), CPU time= 0.01 sec, 591 directives.
 Default parameters read. Elapsed time= 0.09 sec

 Checking input...
 Passed
1


                                         ***  PROGRAM SYSTEM MOLPRO  ***
                                       Copyright, TTI GmbH Stuttgart, 2015
                                    Version 2099.9 linked May 26 2017 16:03:21


 **********************************************************************************************************************************
 LABEL *                                                                                 
  64 bit serial version                                                                  DATE: 09-Jun-17          TIME: 03:16:31  
 **********************************************************************************************************************************

 SHA1:             b4a5b34a9e711420743f49e6833241d17c61fb3c
 **********************************************************************************************************************************
 SETTING GEOMTYP        =    XYZ

 Variable memory set to  500000000 words,  buffer space 

 ZSYMEL=NOSYM

 SETTING BASIS          =    STO-3G


 Recomputing integrals since basis changed


 Using spherical harmonics

 Library entry C      S STO-3G               selected for orbital group  1
 Library entry C      P STO-3G               selected for orbital group  1
 Library entry O      S STO-3G               selected for orbital group  2
 Library entry O      P STO-3G               selected for orbital group  2
 Library entry H      S STO-3G               selected for orbital group  3


 PROGRAM * SEWARD (Integral evaluation for generally contracted gaussian basis sets)     Author: Roland Lindh, 1990

 Geometry written to block  1 of record 700


 Point group  C1  



 ATOMIC COORDINATES

 NR  ATOM    CHARGE       X              Y              Z

   1  C       6.00   -2.895684032    0.042462146    0.000000000
   2  C       6.00   -0.003628274    0.026853008    0.000000000
   3  O       8.00    0.703715112    2.652343999    0.000000000
   4  H       1.00    2.536919528    2.721885921    0.000000000
   5  H       1.00   -3.647001345   -1.886305720    0.000000000
   6  H       1.00   -3.605540754    1.027670861   -1.675298901
   7  H       1.00   -3.605540754    1.027670861    1.675298901
   8  C       6.00    1.026177977   -1.256025366   -2.392015328
   9  C       6.00    1.026177977   -1.256025366    2.392015328
  10  H       1.00    0.337051552   -0.278772398   -4.080731285
  11  H       1.00    0.337051552   -0.278772398    4.080731285
  12  H       1.00    0.448847749   -3.242770030   -2.499729718
  13  H       1.00    0.448847749   -3.242770030    2.499729718
  14  H       1.00    3.100738214   -1.205021658   -2.419454152
  15  H       1.00    3.100738214   -1.205021658    2.419454152

 Bond lengths in Bohr (Angstrom)

 1-2  2.892097881  1-5  2.069933136  1-6  2.069096224  1-7  2.069096224  2-3  2.719106031
     ( 1.530432290)     ( 1.095361444)     ( 1.094918569)     ( 1.094918569)     ( 1.438888946)

  2- 8  2.903104402   2- 9  2.903104402   3- 4  1.834522965   8-10  2.069222119   8-12  2.071730422
       ( 1.536256691)       ( 1.536256691)       ( 0.970787746)       ( 1.094985190)       ( 1.096312526)

  8-14  2.075368508   9-11  2.069222119   9-13  2.071730422   9-15  2.075368508
       ( 1.098237719)       ( 1.094985190)       ( 1.096312526)       ( 1.098237719)

 Bond angles

  1-2-3  104.76902697   1-2-8  110.92255387   1-2-9  110.92255387   2-1-5  110.97328220

  2- 1- 6  110.22090701   2- 1- 7  110.22090701   2- 3- 4  107.25071562   2- 8-10  110.21836376

  2- 8-12  111.57747468   2- 8-14  110.77023896   2- 9-11  110.21836376   2- 9-13  111.57747468

  2- 9-15  110.77023896   3- 2- 8  109.53648747   3- 2- 9  109.53648747   5- 1- 6  108.61190457

  5- 1- 7  108.61190457   6- 1- 7  108.12870271   8- 2- 9  110.96453384  10- 8-12  108.52192632

 10- 8-14  108.08997829  11- 9-13  108.52192632  11- 9-15  108.08997829  12- 8-14  107.54424578

 13- 9-15  107.54424578

 NUCLEAR CHARGE:                   42
 NUMBER OF PRIMITIVE AOS:         105
 NUMBER OF SYMMETRY AOS:          105
 NUMBER OF CONTRACTIONS:           35   (  35A   )
 NUMBER OF CORE ORBITALS:           5   (   5A   )
 NUMBER OF VALENCE ORBITALS:       30   (  30A   )


 NUCLEAR REPULSION ENERGY  198.77359127


 Eigenvalues of metric

         1 0.207E+00 0.227E+00 0.228E+00 0.304E+00 0.354E+00 0.360E+00 0.361E+00 0.363E+00


 Contracted 2-electron integrals neglected if value below      1.0D-11
 AO integral compression algorithm  1   Integral accuracy      1.0D-11

     1.573 MB (compressed) written to integral file ( 87.8%)


 NUMBER OF SORTED TWO-ELECTRON INTEGRALS:     198765.     BUFFER LENGTH:  32768
 NUMBER OF SEGMENTS:   1  SEGMENT LENGTH:     198765      RECORD LENGTH: 524288

 Memory used in sort:       0.76 MW

 SORT1 READ      224962. AND WROTE      188577. INTEGRALS IN      1 RECORDS. CPU TIME:     0.00 SEC, REAL TIME:     0.01 SEC
 SORT2 READ      188577. AND WROTE      198765. INTEGRALS IN      6 RECORDS. CPU TIME:     0.02 SEC, REAL TIME:     0.02 SEC

 FILE SIZES:   FILE 1:    31.8 MBYTE,  FILE 4:     4.2 MBYTE,   TOTAL:     36.0 MBYTE

 OPERATOR DM      FOR CENTER  0  COORDINATES:    0.000000    0.000000    0.000000


 **********************************************************************************************************************************
 DATASETS  * FILE   NREC   LENGTH (MB)   RECORD NAMES
              1      19       31.10       500      610      700      900      950      970     1000      129      960     1100   
                                          VAR    BASINP    GEOM    SYMINP    ZMAT    AOBASIS   BASIS     P2S    ABASIS      S 
                                         1400     1410     1200     1210     1080     1600     1650     1300     1700   
                                           T        V       H0       H01     AOSYM     SMH    MOLCAS    ERIS     OPER   

 PROGRAMS   *        TOTAL       INT
 CPU TIMES  *         0.58      0.43
 REAL TIME  *         0.96 SEC
 DISK USED  *        36.55 MB      
 **********************************************************************************************************************************

 Density functional group B-VWN=B88+VWN5
 Functional: B88(Automatically generated (new) B88)                            Gradient terms: 1
 Functional: VWN5(Automatically generated (new) VWN5)                          Gradient terms: 0
 Use grid at  1800.2

 Functional: B88                       Factor:  1.0000
 Functional: VWN5                      Factor:  1.0000

 Generated new metagrid on record  1800.2 with target accuracy 1.0D-06 and 53396 points in CPU time    1.6
 Computed new grid on record 1800.1 in CPU time    1.8
   32369 words reserved for DFT integration

 PROGRAM * RKS-SCF (Restricted closed shell Kohn-Sham)     Authors: W. Meyer, H.-J. Werner, P.J. Knowles, 1993

 NUMBER OF ELECTRONS:      21+   21-    SPACE SYMMETRY=1    SPIN SYMMETRY: Singlet 
 CONVERGENCE THRESHOLDS:    1.00E-05 (Density)    1.00E-06 (Energy)
 MAX. NUMBER OF ITERATIONS:       60
 INTERPOLATION TYPE:            DIIS
 INTERPOLATION STEPS:              2 (START)      1 (STEP)
 LEVEL SHIFTS:                  0.00 (CLOSED)  0.00 (OPEN) 



 Use fine grid record 1800.2 for energy threshold  1.0D-06
 Orbital guess generated from atomic densities. Full valence occupancy:   21

 Molecular orbital dump at record        2100.2

 Initial occupancy:  21

 ITERATION    DDIFF          GRAD             ENERGY        2-EL.EN.            DIPOLE MOMENTS         DIIS   ORB.
    1      0.000D+00      0.000D+00      -231.52127939    639.755904    0.77046   -1.06691    0.00000    0    start
    2      0.000D+00      0.287D-01      -231.54449999    608.793691   -0.31711    0.25288    0.00000    1    diag
    3      0.103D+00      0.279D-01      -231.86192432    623.496431    0.37064   -0.32415    0.00000    2    diag
    4      0.528D-01      0.114D-02      -231.86234714    623.481190    0.31331   -0.36464    0.00000    3    diag
    5      0.294D-02      0.577D-03      -231.86246571    623.420442    0.31244   -0.35629    0.00000    4    diag
    6      0.104D-02      0.713D-04      -231.86246760    623.418331    0.31634   -0.35195    0.00000    5    diag
    7      0.183D-03      0.333D-04      -231.86246800    623.417638    0.31657   -0.35367    0.00000    6    diag
    8      0.567D-04      0.339D-05      -231.86246801    623.417520    0.31625   -0.35355    0.00000    7    diag
    9      0.759D-05      0.824D-06      -231.86246801    623.417565    0.31631   -0.35360    0.00000    0    orth

 Final occupancy:  21

 !RKS STATE 1.1 Energy               -231.862468005083
 Nuclear energy                       198.77359127
 One-electron energy                 -707.07892249
 Two-electron energy                  311.70878262
 Density functional                   -35.26591941     B88=-32.59940752 VWN5= -2.66651189
 Virial quotient                       -1.02077715
 !RKS STATE 1.1 Dipole moment           0.31631254    -0.35359965     0.00000000
 Dipole moment /Debye                   0.80393364    -0.89870181     0.00000000

 Orbital energies:

         1.1          2.1          3.1          4.1          5.1          6.1          7.1          8.1          9.1         10.1
    -18.548426    -9.848963    -9.789353    -9.789124    -9.789037    -0.872623    -0.683669    -0.603125    -0.602163    -0.474831

        11.1         12.1         13.1         14.1         15.1         16.1         17.1         18.1         19.1         20.1
     -0.400502    -0.373597    -0.373149    -0.333956    -0.329607    -0.306721    -0.306260    -0.274894    -0.271403    -0.171341

        21.1         22.1         23.1
     -0.087324     0.232374     0.290956

 HOMO     21.1    -0.087324 =      -2.3762eV
 LUMO     22.1     0.232374 =       6.3232eV
 LUMO-HOMO         0.319698 =       8.6994eV


 **********************************************************************************************************************************
 DATASETS  * FILE   NREC   LENGTH (MB)   RECORD NAMES
              1      20       32.81       500      610      700      900      950      970     1000      129      960     1100   
                                          VAR    BASINP    GEOM    SYMINP    ZMAT    AOBASIS   BASIS     P2S    ABASIS      S 
                                         1400     1410     1200     1210     1080     1600     1650     1300     1700     1800   
                                           T        V       H0       H01     AOSYM     SMH    MOLCAS    ERIS     OPER     GRID   

              2       5        3.02       700     1000      520     1800     2100   
                                         GEOM     BASIS   MCVARS    GRID      RKS  

 PROGRAMS   *        TOTAL        KS       INT
 CPU TIMES  *         4.99      4.42      0.43
 REAL TIME  *         5.77 SEC
 DISK USED  *        36.55 MB      
 **********************************************************************************************************************************


 PROGRAM * Intrinsic Basis Bonding Analysis (IBBA)          Author: G. Knizia

 Molecular orbitals read from record     2100.2  Type=RKS/CANONICAL (state 1.1)
 Fock matrix read from record            2100.2  Type=RKS/TOTAL (state 1.1)
 Orbital energies read from record       2100.2  Type=RKS/CANONICAL (state 1.1)
 Density matrix read from record         2100.2  Type=RKS/CHARGE (state 1.1)

 Number of core orbitals:           5 (   5 )
 Number of closed-shell orbitals:  16 (  16 )

 Basis set MINAO-AUTO-PP generated.      Number of basis functions:   35 

 Polarized AO type:                A = (O Ot + (1-O)(1-Ot)) P12
 Orthogonalization method:         Symmetric (Loewdin)
 Localization functional:          L = sum[A,i] <i|n_A|i>^4 -> max

 Localization group 1:  21 orbitals, occupancy  2.000
 Iterative localization: IB/PM,    7 iter; Final gradient 0.12E-08

 Bond order analysis:       [THRPRINT= 0.020]

   CEN ATOM   CEN ATOM     WIBERG.BO      RENORM.BO
     1   C  -   2   C       0.990166       0.985438
     1   C  -   5   H       0.968002       0.989800
     1   C  -   6   H       0.964617       0.986841
     1   C  -   7   H       0.964617       0.986841

     2   C  -   3   O       1.003228       0.982669
     2   C  -   1   C       0.990166       0.985438
     2   C  -   8   C       0.985303       0.959116
     2   C  -   9   C       0.985303       0.959116

     3   O  -   2   C       1.003228       0.982669
     3   O  -   4   H       0.930627       0.981330
     3   O  -   9   C       0.029484       0.015248
     3   O  -   8   C       0.029484       0.015248

     4   H  -   3   O       0.930627       0.981330

     5   H  -   1   C       0.968002       0.989800

     6   H  -   1   C       0.964617       0.986841

     7   H  -   1   C       0.964617       0.986841

     8   C  -   2   C       0.985303       0.959116
     8   C  -  14   H       0.967366       0.986065
     8   C  -  12   H       0.965750       0.986938
     8   C  -  10   H       0.965478       0.986525
     8   C  -   3   O       0.029484       0.015248

     9   C  -   2   C       0.985303       0.959116
     9   C  -  15   H       0.967366       0.986065
     9   C  -  13   H       0.965750       0.986938
     9   C  -  11   H       0.965478       0.986525
     9   C  -   3   O       0.029484       0.015248

    10   H  -   8   C       0.965478       0.986525

    11   H  -   9   C       0.965478       0.986525

    12   H  -   8   C       0.965750       0.986938

    13   H  -   9   C       0.965750       0.986938

    14   H  -   8   C       0.967366       0.986065

    15   H  -   9   C       0.967366       0.986065


 Valency analysis:

   CEN ATOM   TOT.VALENCE
     1   C       3.938179
     2   C       3.973110
     3   O       2.044559
     4   H       0.948598
     5   H       0.984082
     6   H       0.982571
     7   H       0.982571
     8   C       3.940965
     9   C       3.940965
    10   H       0.983188
    11   H       0.983188
    12   H       0.983742
    13   H       0.983742
    14   H       0.985490
    15   H       0.985490

 Total charge composition:

   CEN ATOM         s          p       ELECTRONS ->P.CHARGE
     1   C       2.99908    3.38036      6.37944   -0.37944
     2   C       2.94723    2.92975      5.87697    0.12303
     3   O       3.68829    4.64237      8.33066   -0.33066
     4   H       0.77328                 0.77328    0.22672
     5   H       0.87384                 0.87384    0.12616
     6   H       0.86798                 0.86798    0.13202
     7   H       0.86798                 0.86798    0.13202
     8   C       3.00428    3.38826      6.39254   -0.39254
     9   C       3.00428    3.38826      6.39254   -0.39254
    10   H       0.87034                 0.87034    0.12966
    11   H       0.87034                 0.87034    0.12966
    12   H       0.87249                 0.87249    0.12751
    13   H       0.87249                 0.87249    0.12751
    14   H       0.87954                 0.87954    0.12046
    15   H       0.87954                 0.87954    0.12046

 Total charge composition, AO contributions:

   CEN ATOM SHL      SPHERICAL COMPONENTS
     1   C  1s       1.99194
     1   C  2s       1.00714
     1   C  2p       1.04925    1.16162    1.16949

     2   C  1s       1.99334
     2   C  2s       0.95388
     2   C  2p       1.02897    0.87414    1.02664

     3   O  1s       1.99735
     3   O  2s       1.69094
     3   O  2p       1.34495    1.34575    1.95168

     4   H  1s       0.77328

     5   H  1s       0.87384

     6   H  1s       0.86798

     7   H  1s       0.86798

     8   C  1s       1.99204
     8   C  2s       1.01224
     8   C  2p       1.14437    1.14531    1.09858

     9   C  1s       1.99204
     9   C  2s       1.01224
     9   C  2p       1.14437    1.14531    1.09858

    10   H  1s       0.87034

    11   H  1s       0.87034

    12   H  1s       0.87249

    13   H  1s       0.87249

    14   H  1s       0.87954

    15   H  1s       0.87954

 Summary of localized orbital composition:   [THRPRINT= 0.020]

   ORB  GRP  ORB.ENERGY      CENTERS/CHARGES
     1   1   -18.377561      O  3   2.000
     2   1    -9.757527      C  2   2.000
     3   1    -9.679791      C  8   2.000
     4   1    -9.679791      C  9   2.000
     5   1    -9.679179      C  1   2.000
     6   1    -0.609081      O  3   1.225   H  4   0.765
     7   1    -0.563558      O  3   1.163   C  2   0.820
     8   1    -0.484156      C  2   0.994   C  1   0.984   (other: 0.023)
     9   1    -0.483543      C  8   0.999   C  2   0.987
    10   1    -0.483543      C  9   0.999   C  2   0.987
    11   1    -0.448235      O  3   1.985
    12   1    -0.434522      C  9   1.118   H 15   0.873
    13   1    -0.434522      C  8   1.118   H 14   0.873
    14   1    -0.433124      C  9   1.125   H 13   0.865
    15   1    -0.433124      C  8   1.125   H 12   0.865
    16   1    -0.431822      C  1   1.123   H  5   0.867
    17   1    -0.430340      C  9   1.128   H 11   0.863
    18   1    -0.430340      C  8   1.128   H 10   0.863
    19   1    -0.426158      C  1   1.130   H  6   0.861
    20   1    -0.426158      C  1   1.130   H  7   0.861
    21   1    -0.103992      O  3   1.952   C  2   0.023   (other: 0.026)

 Localized orbitals saved to record      2100.2  (orbital set 2)


 **********************************************************************************************************************************
 DATASETS  * FILE   NREC   LENGTH (MB)   RECORD NAMES
              1      20       32.81       500      610      700      900      950      970     1000      129      960     1100   
                                          VAR    BASINP    GEOM    SYMINP    ZMAT    AOBASIS   BASIS     P2S    ABASIS      S 
                                         1400     1410     1200     1210     1080     1600     1650     1300     1700     1800   
                                           T        V       H0       H01     AOSYM     SMH    MOLCAS    ERIS     OPER     GRID   

              2       5        3.03       700     1000      520     1800     2100   
                                         GEOM     BASIS   MCVARS    GRID      RKS  

 PROGRAMS   *        TOTAL      IBBA        KS       INT
 CPU TIMES  *         5.03      0.03      4.42      0.43
 REAL TIME  *         5.95 SEC
 DISK USED  *        36.55 MB      
 **********************************************************************************************************************************
 Molecular orbitals read from record     2100.2  Type=RKS/LOCAL(IBO)  
 Occupation numbers read from record     2100.2  Type=RKS/LOCAL(IBO)  
 Orbital energies read from record       2100.2  Type=RKS/LOCAL(IBO)  
 Redundancy group numbers read from rec  2100.2  Type=RKS/LOCAL(IBO)  

 IBBA/STO-3G energy=      0.000000000000

        KS-SCF  
   -231.86246801
 **********************************************************************************************************************************
 Molpro calculation terminated
