
 Primary working directories    : /local
 Secondary working directories  : /local
 Wavefunction directory         : /local/
 Main file repository           : /local/

 SHA1      : b4a5b34a9e711420743f49e6833241d17c61fb3c
 NAME      : 2099.9.b4a5b34
 ARCHNAME  : linux/x86_64_openmp
 FC        : /cm/shared/languages/GCC-6.1/bin/gfortran
 BLASLIB   : -lblas
 id        : simonbennie

 Nodes     nprocs
 node35-036    1

 Using customized tuning parameters: mindgm=1; mindgv=20; mindgc=4; mindgr=1; noblas=0; minvec=7
 default implementation of scratch files=df  

 memory,500,m
 geomtyp=xyz
 nosym
 noorient
 geometry={
 C         -1.53233        0.02247        0.00000
 C         -0.00192        0.01421        0.00000
 O          0.37239        1.40356        0.00000
 H          1.34248        1.44036        0.00000
 H         -1.92991       -0.99819        0.00000
 H         -1.90797        0.54382       -0.88653
 H         -1.90797        0.54382        0.88653
 C          0.54303       -0.66466       -1.26580
 C          0.54303       -0.66466        1.26580
 H          0.17836       -0.14752       -2.15943
 H          0.17836       -0.14752        2.15943
 H          0.23752       -1.71600       -1.32280
 H          0.23752       -1.71600        1.32280
 H          1.64084       -0.63767       -1.28032
 H          1.64084       -0.63767        1.28032
 }
 basis={ default,tzvp }
 {uks,S,direct;wf,42,1,0}
 {ibba,bonds=1}

 Variables initialized (895), CPU time= 0.00 sec
 Commands  initialized (725), CPU time= 0.02 sec, 591 directives.
 Default parameters read. Elapsed time= 0.12 sec

 Checking input...
 Passed
1


                                         ***  PROGRAM SYSTEM MOLPRO  ***
                                       Copyright, TTI GmbH Stuttgart, 2015
                                    Version 2099.9 linked May 26 2017 16:03:21


 **********************************************************************************************************************************
 LABEL *                                                                                 
  64 bit serial version                                                                  DATE: 12-Jun-17          TIME: 20:00:39  
 **********************************************************************************************************************************

 SHA1:             b4a5b34a9e711420743f49e6833241d17c61fb3c
 **********************************************************************************************************************************
 SETTING GEOMTYP        =    XYZ

 Variable memory set to  500000000 words,  buffer space 

 ZSYMEL=NOSYM

 SETTING BASIS          =    TZVP


 Recomputing integrals since basis changed


 Using spherical harmonics

 Library entry C      S def2-TZVP            selected for orbital group  1
 Library entry C      P def2-TZVP            selected for orbital group  1
 Library entry C      D def2-TZVP            selected for orbital group  1
 Library entry C      F def2-TZVP            selected for orbital group  1
 Library entry O      S def2-TZVP            selected for orbital group  2
 Library entry O      P def2-TZVP            selected for orbital group  2
 Library entry O      D def2-TZVP            selected for orbital group  2
 Library entry O      F def2-TZVP            selected for orbital group  2
 Library entry H      S def2-TZVP            selected for orbital group  3
 Library entry H      P def2-TZVP            selected for orbital group  3


 PROGRAM * SEWARD (Integral evaluation for generally contracted gaussian basis sets)     Author: Roland Lindh, 1990

 Geometry written to block  1 of record 700


 Point group  C1  



 ATOMIC COORDINATES

 NR  ATOM    CHARGE       X              Y              Z

   1  C       6.00   -2.895684032    0.042462146    0.000000000
   2  C       6.00   -0.003628274    0.026853008    0.000000000
   3  O       8.00    0.703715112    2.652343999    0.000000000
   4  H       1.00    2.536919528    2.721885921    0.000000000
   5  H       1.00   -3.647001345   -1.886305720    0.000000000
   6  H       1.00   -3.605540754    1.027670861   -1.675298901
   7  H       1.00   -3.605540754    1.027670861    1.675298901
   8  C       6.00    1.026177977   -1.256025366   -2.392015328
   9  C       6.00    1.026177977   -1.256025366    2.392015328
  10  H       1.00    0.337051552   -0.278772398   -4.080731285
  11  H       1.00    0.337051552   -0.278772398    4.080731285
  12  H       1.00    0.448847749   -3.242770030   -2.499729718
  13  H       1.00    0.448847749   -3.242770030    2.499729718
  14  H       1.00    3.100738214   -1.205021658   -2.419454152
  15  H       1.00    3.100738214   -1.205021658    2.419454152

 Bond lengths in Bohr (Angstrom)

 1-2  2.892097881  1-5  2.069933136  1-6  2.069096224  1-7  2.069096224  2-3  2.719106031
     ( 1.530432290)     ( 1.095361444)     ( 1.094918569)     ( 1.094918569)     ( 1.438888946)

  2- 8  2.903104402   2- 9  2.903104402   3- 4  1.834522965   8-10  2.069222119   8-12  2.071730422
       ( 1.536256691)       ( 1.536256691)       ( 0.970787746)       ( 1.094985190)       ( 1.096312526)

  8-14  2.075368508   9-11  2.069222119   9-13  2.071730422   9-15  2.075368508
       ( 1.098237719)       ( 1.094985190)       ( 1.096312526)       ( 1.098237719)

 Bond angles

  1-2-3  104.76902697   1-2-8  110.92255387   1-2-9  110.92255387   2-1-5  110.97328220

  2- 1- 6  110.22090701   2- 1- 7  110.22090701   2- 3- 4  107.25071562   2- 8-10  110.21836376

  2- 8-12  111.57747468   2- 8-14  110.77023896   2- 9-11  110.21836376   2- 9-13  111.57747468

  2- 9-15  110.77023896   3- 2- 8  109.53648747   3- 2- 9  109.53648747   5- 1- 6  108.61190457

  5- 1- 7  108.61190457   6- 1- 7  108.12870271   8- 2- 9  110.96453384  10- 8-12  108.52192632

 10- 8-14  108.08997829  11- 9-13  108.52192632  11- 9-15  108.08997829  12- 8-14  107.54424578

 13- 9-15  107.54424578

 NUCLEAR CHARGE:                   42
 NUMBER OF PRIMITIVE AOS:         335
 NUMBER OF SYMMETRY AOS:          310
 NUMBER OF CONTRACTIONS:          215   ( 215A   )
 NUMBER OF CORE ORBITALS:           5   (   5A   )
 NUMBER OF VALENCE ORBITALS:       30   (  30A   )


 NUCLEAR REPULSION ENERGY  198.77359127


 Eigenvalues of metric

         1 0.262E-03 0.510E-03 0.539E-03 0.594E-03 0.697E-03 0.755E-03 0.210E-02 0.239E-02


 Contracted 2-electron integrals neglected if value below      1.0D-11
 AO integral compression algorithm  1   Integral accuracy      1.0D-11

     977.797 MB (compressed) written to integral file ( 41.7%)


 NUMBER OF SORTED TWO-ELECTRON INTEGRALS:  269595810.     BUFFER LENGTH:  32768
 NUMBER OF SEGMENTS:  17  SEGMENT LENGTH:   15999762      RECORD LENGTH: 524288

 Memory used in sort:      16.56 MW

 SORT1 READ   292827432. AND WROTE   238500613. INTEGRALS IN    690 RECORDS. CPU TIME:     3.74 SEC, REAL TIME:     7.00 SEC
 SORT2 READ   238500613. AND WROTE   269595810. INTEGRALS IN   3730 RECORDS. CPU TIME:     6.67 SEC, REAL TIME:     8.27 SEC

 FILE SIZES:   FILE 1:  1009.7 MBYTE,  FILE 4:  2894.1 MBYTE,   TOTAL:   3903.8 MBYTE

 OPERATOR DM      FOR CENTER  0  COORDINATES:    0.000000    0.000000    0.000000


 **********************************************************************************************************************************
 DATASETS  * FILE   NREC   LENGTH (MB)   RECORD NAMES
              1      19      926.27       500      610      700      900      950      970     1000      129      960     1100   
                                          VAR    BASINP    GEOM    SYMINP    ZMAT    AOBASIS   BASIS     P2S    ABASIS      S 
                                         1400     1410     1200     1210     1080     1600     1650     1300     1700   
                                           T        V       H0       H01     AOSYM     SMH    MOLCAS    ERIS     OPER   

 PROGRAMS   *        TOTAL       INT
 CPU TIMES  *        28.03     27.89
 REAL TIME  *        54.12 SEC
 DISK USED  *         3.90 GB      
 **********************************************************************************************************************************

 Density functional group S=DIRAC
 Functional: DIRAC(Automatically generated (new) DIRAC)                        Gradient terms: 0
 Use grid at  1800.2

 Functional: DIRAC                     Factor:  1.0000

 Generated new metagrid on record  1800.2 with target accuracy 1.0D-06 and 54596 points in CPU time    1.7
 Computed new grid on record 1800.1 in CPU time    1.9
   93304 words reserved for DFT integration

 PROGRAM * UKS-SCF (Unrestricted Kohn-Sham)     Authors: W. Meyer, H.-J. Werner, P.J. Knowles, 1993

 NUMBER OF ELECTRONS:      21+   21-    SPACE SYMMETRY=1    SPIN SYMMETRY: Singlet 
 CONVERGENCE THRESHOLDS:    1.00E-05 (Density)    1.00E-06 (Energy)
 MAX. NUMBER OF ITERATIONS:       60
 INTERPOLATION TYPE:            DIIS
 INTERPOLATION STEPS:              2 (START)      1 (STEP)
 LEVEL SHIFTS:                 -0.20 (ALPHA)  -0.20 (BETA) 



 Use fine grid record 1800.2 for energy threshold  1.0D-06
 Orbital guess generated from atomic densities. Full valence occupancy:   21

 Molecular orbital dump at record        2200.2

 Initial alpha occupation  21
 Initial beta  occupation  21

 ITERATION    DDIFF          GRAD             ENERGY        2-EL.EN.            DIPOLE MOMENTS         DIIS
    1      0.000D+00      0.000D+00      -228.76107740    638.469410    0.71727   -0.75943    0.00000    0
    2      0.623D-02      0.365D-02      -228.99348646    611.690828    0.20864   -0.46419    0.00000    1
    3      0.205D-02      0.217D-02      -229.07451281    620.303008    0.37742   -0.54479    0.00000    2
    4      0.563D-03      0.258D-03      -229.07579934    619.901035    0.35857   -0.47867    0.00000    3
    5      0.393D-03      0.138D-03      -229.07626319    619.908988    0.35796   -0.48966    0.00000    4
    6      0.446D-03      0.374D-04      -229.07636578    619.865961    0.35460   -0.47548    0.00000    5
    7      0.102D-03      0.140D-04      -229.07637238    619.825033    0.35242   -0.47505    0.00000    6
    8      0.495D-04      0.828D-05      -229.07637445    619.839369    0.35215   -0.47564    0.00000    7
    9      0.153D-04      0.980D-06      -229.07637453    619.837816    0.35212   -0.47497    0.00000    7
   10      0.438D-05      0.331D-06      -229.07637454    619.838141    0.35197   -0.47525    0.00000    7
   11      0.838D-06      0.918D-07      -229.07637454    619.838174    0.35199   -0.47519    0.00000    7

 Final alpha occupancy:  21
 Final beta  occupancy:  21

 !UKS STATE 1.1 Energy               -229.076374535940
 Nuclear energy                       198.77359127
 One-electron energy                 -708.64703576
 Two-electron energy                  309.91908681
 Density functional                   -29.12201686     DIRAC=-29.12201686
 Virial quotient                       -0.99882784
 !UKS STATE 1.1 Dipole moment           0.35198990    -0.47519371     0.00000000
 Dipole moment /Debye                   0.89461049    -1.20774284     0.00000000

 Orbital energies for positive spin:

         1.1          2.1          3.1          4.1          5.1          6.1          7.1          8.1          9.1         10.1
    -18.533476    -9.769530    -9.701190    -9.701184    -9.696017    -0.877933    -0.665900    -0.575228    -0.574667    -0.467177

        11.1         12.1         13.1         14.1         15.1         16.1         17.1         18.1         19.1         20.1
     -0.395849    -0.361571    -0.359096    -0.321338    -0.307985    -0.290893    -0.275293    -0.267082    -0.260453    -0.234728

        21.1         22.1         23.1
     -0.182530     0.023405     0.070827

 Orbital energies for negative spin:

         1.1          2.1          3.1          4.1          5.1          6.1          7.1          8.1          9.1         10.1
    -18.533476    -9.769530    -9.701190    -9.701184    -9.696017    -0.877933    -0.665900    -0.575228    -0.574667    -0.467177

        11.1         12.1         13.1         14.1         15.1         16.1         17.1         18.1         19.1         20.1
     -0.395849    -0.361571    -0.359096    -0.321338    -0.307985    -0.290893    -0.275293    -0.267082    -0.260453    -0.234728

        21.1         22.1         23.1
     -0.182530     0.023405     0.070827

 HOMO     21.1    -0.182530 =      -4.9669eV
 LUMO     22.1     0.023405 =       0.6369eV
 LUMO-HOMO         0.205936 =       5.6038eV

 EXPECTATION VALUE OF S**2:             0.00000000

 Natural orbitals saved to record    2200.2 (Orbital set 3)

 Orbital spaces for UNO-CAS (Min. occupation: 0.020  Max. occupation: 1.980):

 Closed:       21
 Active:        0


 **********************************************************************************************************************************
 DATASETS  * FILE   NREC   LENGTH (MB)   RECORD NAMES
              1      20      928.02       500      610      700      900      950      970     1000      129      960     1100   
                                          VAR    BASINP    GEOM    SYMINP    ZMAT    AOBASIS   BASIS     P2S    ABASIS      S 
                                         1400     1410     1200     1210     1080     1600     1650     1300     1700     1800   
                                           T        V       H0       H01     AOSYM     SMH    MOLCAS    ERIS     OPER     GRID   

              2       5        4.89       700     1000      520     1800     2200   
                                         GEOM     BASIS   MCVARS    GRID      UKS  

 PROGRAMS   *        TOTAL       UKS       INT
 CPU TIMES  *        81.47     53.44     27.89
 REAL TIME  *       128.42 SEC
 DISK USED  *         3.90 GB      
 **********************************************************************************************************************************


 PROGRAM * Intrinsic Basis Bonding Analysis (IBBA)          Author: G. Knizia

 Molecular orbitals read from record     2200.2  Type=UKS/ALPHA (state 1.1)
 Fock matrix read from record            2200.2  Type=UKS/TOTAL (state 1.1)
 Orbital energies read from record       2200.2  Type=UKS/ALPHA (state 1.1)
 Density matrix read from record         2200.2  Type=UKS/CHARGE (state 1.1)

 Number of core orbitals:           5 (   5 )
 Number of closed-shell orbitals:  16 (  16 )

 Basis set MINAO-AUTO-PP generated.      Number of basis functions:   35 

 Polarized AO type:                A = (O Ot + (1-O)(1-Ot)) P12
 Orthogonalization method:         Symmetric (Loewdin)
 Localization functional:          L = sum[A,i] <i|n_A|i>^4 -> max

 Localization group 1:  21 orbitals, occupancy  2.000
 Iterative localization: IB/PM,    7 iter; Final gradient 0.66E-08

 Bond order analysis:       [THRPRINT= 0.020]

   CEN ATOM   CEN ATOM     WIBERG.BO      RENORM.BO
     1   C  -   2   C       0.995535       0.992000
     1   C  -   5   H       0.956024       0.984803
     1   C  -   6   H       0.951017       0.978055
     1   C  -   7   H       0.951017       0.978055

     2   C  -   1   C       0.995535       0.992000
     2   C  -   9   C       0.994741       0.972632
     2   C  -   8   C       0.994741       0.972632
     2   C  -   3   O       0.939273       0.939721

     3   O  -   2   C       0.939273       0.939721
     3   O  -   4   H       0.860398       0.969777
     3   O  -   8   C       0.032328       0.016595
     3   O  -   9   C       0.032328       0.016595
     3   O  -  13   H       0.020495       0.016289
     3   O  -  12   H       0.020495       0.016289

     4   H  -   3   O       0.860398       0.969777

     5   H  -   1   C       0.956024       0.984803

     6   H  -   1   C       0.951017       0.978055

     7   H  -   1   C       0.951017       0.978055

     8   C  -   2   C       0.994741       0.972632
     8   C  -  14   H       0.955258       0.978911
     8   C  -  10   H       0.951685       0.977889
     8   C  -  12   H       0.950863       0.977385
     8   C  -   3   O       0.032328       0.016595

     9   C  -   2   C       0.994741       0.972632
     9   C  -  15   H       0.955258       0.978911
     9   C  -  11   H       0.951685       0.977889
     9   C  -  13   H       0.950863       0.977385
     9   C  -   3   O       0.032328       0.016595

    10   H  -   8   C       0.951685       0.977889

    11   H  -   9   C       0.951685       0.977889

    12   H  -   8   C       0.950863       0.977385
    12   H  -   3   O       0.020495       0.016289

    13   H  -   9   C       0.950863       0.977385
    13   H  -   3   O       0.020495       0.016289

    14   H  -   8   C       0.955258       0.978911

    15   H  -   9   C       0.955258       0.978911


 Valency analysis:

   CEN ATOM   TOT.VALENCE
     1   C       3.924939
     2   C       3.937453
     3   O       1.945342
     4   H       0.884472
     5   H       0.978723
     6   H       0.976202
     7   H       0.976202
     8   C       3.927749
     9   C       3.927749
    10   H       0.976225
    11   H       0.976225
    12   H       0.977977
    13   H       0.977977
    14   H       0.980651
    15   H       0.980651

 Total charge composition:

   CEN ATOM         s          p       ELECTRONS ->P.CHARGE
     1   C       3.03479    3.41388      6.44867   -0.44867
     2   C       2.92722    2.82574      5.75296    0.24704
     3   O       3.64193    4.90874      8.55066   -0.55066
     4   H       0.66011                 0.66011    0.33989
     5   H       0.85413                 0.85413    0.14587
     6   H       0.84573                 0.84573    0.15427
     7   H       0.84573                 0.84573    0.15427
     8   C       3.04218    3.42051      6.46270   -0.46270
     9   C       3.04218    3.42051      6.46270   -0.46270
    10   H       0.84581                 0.84581    0.15419
    11   H       0.84581                 0.84581    0.15419
    12   H       0.85160                 0.85160    0.14840
    13   H       0.85160                 0.85160    0.14840
    14   H       0.86090                 0.86090    0.13910
    15   H       0.86090                 0.86090    0.13910

 Total charge composition, AO contributions:

   CEN ATOM SHL      SPHERICAL COMPONENTS
     1   C  1s       1.99222
     1   C  2s       1.04257
     1   C  2p       1.04759    1.17671    1.18957

     2   C  1s       1.99375
     2   C  2s       0.93347
     2   C  2p       1.01112    0.80076    1.01387

     3   O  1s       1.99742
     3   O  2s       1.64451
     3   O  2p       1.47259    1.48765    1.94849

     4   H  1s       0.66011

     5   H  1s       0.85413

     6   H  1s       0.84573

     7   H  1s       0.84573

     8   C  1s       1.99231
     8   C  2s       1.04987
     8   C  2p       1.15766    1.15793    1.10492

     9   C  1s       1.99231
     9   C  2s       1.04987
     9   C  2p       1.15766    1.15793    1.10492

    10   H  1s       0.84581

    11   H  1s       0.84581

    12   H  1s       0.85160

    13   H  1s       0.85160

    14   H  1s       0.86090

    15   H  1s       0.86090

 Summary of localized orbital composition:   [THRPRINT= 0.020]

   ORB  GRP  ORB.ENERGY      CENTERS/CHARGES
     1   1   -18.388044      O  3   2.000
     2   1    -9.682603      C  2   2.000
     3   1    -9.592446      C  9   2.000
     4   1    -9.592446      C  8   2.000
     5   1    -9.586536      C  1   2.000
     6   1    -0.649079      O  3   1.344   H  4   0.645
     7   1    -0.614828      O  3   1.275   C  2   0.705
     8   1    -0.476223      C  9   1.010   C  2   0.973
     9   1    -0.476223      C  8   1.010   C  2   0.973
    10   1    -0.475794      C  1   0.992   C  2   0.981   (other: 0.027)
    11   1    -0.451937      O  3   1.979   (other: 0.021)
    12   1    -0.406901      C  8   1.143   H 12   0.840
    13   1    -0.406901      C  9   1.143   H 13   0.840
    14   1    -0.405929      C  9   1.133   H 15   0.852
    15   1    -0.405929      C  8   1.133   H 14   0.852
    16   1    -0.402731      C  1   1.138   H  5   0.846
    17   1    -0.400757      C  8   1.152   H 10   0.836
    18   1    -0.400757      C  9   1.152   H 11   0.836
    19   1    -0.396280      C  1   1.151   H  6   0.836
    20   1    -0.396280      C  1   1.151   H  7   0.836
    21   1    -0.210483      O  3   1.948   (other: 0.052)

 Localized orbitals saved to record      2200.2  (orbital set 4)


 **********************************************************************************************************************************
 DATASETS  * FILE   NREC   LENGTH (MB)   RECORD NAMES
              1      20      928.02       500      610      700      900      950      970     1000      129      960     1100   
                                          VAR    BASINP    GEOM    SYMINP    ZMAT    AOBASIS   BASIS     P2S    ABASIS      S 
                                         1400     1410     1200     1210     1080     1600     1650     1300     1700     1800   
                                           T        V       H0       H01     AOSYM     SMH    MOLCAS    ERIS     OPER     GRID   

              2       5        5.27       700     1000      520     1800     2200   
                                         GEOM     BASIS   MCVARS    GRID      UKS  

 PROGRAMS   *        TOTAL      IBBA       UKS       INT
 CPU TIMES  *        81.54      0.07     53.44     27.89
 REAL TIME  *       128.60 SEC
 DISK USED  *         3.90 GB      
 **********************************************************************************************************************************
 Molecular orbitals read from record     2200.2  Type=UKS/LOCAL(IBO)  
 Occupation numbers read from record     2200.2  Type=UKS/LOCAL(IBO)  
 Orbital energies read from record       2200.2  Type=UKS/LOCAL(IBO)  
 Redundancy group numbers read from rec  2200.2  Type=UKS/BETA (state 1.1)

 IBBA/TZVP energy=      0.000000000000

        UKS-SCF 
   -229.07637454
 **********************************************************************************************************************************
 Molpro calculation terminated
