
 Primary working directories    : /local
 Secondary working directories  : /local
 Wavefunction directory         : /local/
 Main file repository           : /local/

 SHA1      : b4a5b34a9e711420743f49e6833241d17c61fb3c
 NAME      : 2099.9.b4a5b34
 ARCHNAME  : linux/x86_64_openmp
 FC        : /cm/shared/languages/GCC-6.1/bin/gfortran
 BLASLIB   : -lblas
 id        : simonbennie

 Nodes     nprocs
 node32-022    1

 Using customized tuning parameters: mindgm=1; mindgv=20; mindgc=4; mindgr=1; noblas=0; minvec=7
 default implementation of scratch files=df  

 memory,500,m
 geomtyp=xyz
 nosym
 noorient
 geometry={
 C         -1.53233        0.02247        0.00000
 C         -0.00192        0.01421        0.00000
 O          0.37239        1.40356        0.00000
 H          1.34248        1.44036        0.00000
 H         -1.92991       -0.99819        0.00000
 H         -1.90797        0.54382       -0.88653
 H         -1.90797        0.54382        0.88653
 C          0.54303       -0.66466       -1.26580
 C          0.54303       -0.66466        1.26580
 H          0.17836       -0.14752       -2.15943
 H          0.17836       -0.14752        2.15943
 H          0.23752       -1.71600       -1.32280
 H          0.23752       -1.71600        1.32280
 H          1.64084       -0.63767       -1.28032
 H          1.64084       -0.63767        1.28032
 }
 basis={ default,tzvp }
 {uks,M06-HF,direct;wf,42,1,0}
 {ibba,bonds=1}

 Variables initialized (895), CPU time= 0.00 sec
 Commands  initialized (725), CPU time= 0.02 sec, 591 directives.
 Default parameters read. Elapsed time= 0.07 sec

 Checking input...
 Passed
1


                                         ***  PROGRAM SYSTEM MOLPRO  ***
                                       Copyright, TTI GmbH Stuttgart, 2015
                                    Version 2099.9 linked May 26 2017 16:03:21


 **********************************************************************************************************************************
 LABEL *                                                                                 
  64 bit serial version                                                                  DATE: 12-Jun-17          TIME: 19:28:24  
 **********************************************************************************************************************************

 SHA1:             b4a5b34a9e711420743f49e6833241d17c61fb3c
 **********************************************************************************************************************************
 SETTING GEOMTYP        =    XYZ

 Variable memory set to  500000000 words,  buffer space 

 ZSYMEL=NOSYM

 SETTING BASIS          =    TZVP


 Recomputing integrals since basis changed


 Using spherical harmonics

 Library entry C      S def2-TZVP            selected for orbital group  1
 Library entry C      P def2-TZVP            selected for orbital group  1
 Library entry C      D def2-TZVP            selected for orbital group  1
 Library entry C      F def2-TZVP            selected for orbital group  1
 Library entry O      S def2-TZVP            selected for orbital group  2
 Library entry O      P def2-TZVP            selected for orbital group  2
 Library entry O      D def2-TZVP            selected for orbital group  2
 Library entry O      F def2-TZVP            selected for orbital group  2
 Library entry H      S def2-TZVP            selected for orbital group  3
 Library entry H      P def2-TZVP            selected for orbital group  3


 PROGRAM * SEWARD (Integral evaluation for generally contracted gaussian basis sets)     Author: Roland Lindh, 1990

 Geometry written to block  1 of record 700


 Point group  C1  



 ATOMIC COORDINATES

 NR  ATOM    CHARGE       X              Y              Z

   1  C       6.00   -2.895684032    0.042462146    0.000000000
   2  C       6.00   -0.003628274    0.026853008    0.000000000
   3  O       8.00    0.703715112    2.652343999    0.000000000
   4  H       1.00    2.536919528    2.721885921    0.000000000
   5  H       1.00   -3.647001345   -1.886305720    0.000000000
   6  H       1.00   -3.605540754    1.027670861   -1.675298901
   7  H       1.00   -3.605540754    1.027670861    1.675298901
   8  C       6.00    1.026177977   -1.256025366   -2.392015328
   9  C       6.00    1.026177977   -1.256025366    2.392015328
  10  H       1.00    0.337051552   -0.278772398   -4.080731285
  11  H       1.00    0.337051552   -0.278772398    4.080731285
  12  H       1.00    0.448847749   -3.242770030   -2.499729718
  13  H       1.00    0.448847749   -3.242770030    2.499729718
  14  H       1.00    3.100738214   -1.205021658   -2.419454152
  15  H       1.00    3.100738214   -1.205021658    2.419454152

 Bond lengths in Bohr (Angstrom)

 1-2  2.892097881  1-5  2.069933136  1-6  2.069096224  1-7  2.069096224  2-3  2.719106031
     ( 1.530432290)     ( 1.095361444)     ( 1.094918569)     ( 1.094918569)     ( 1.438888946)

  2- 8  2.903104402   2- 9  2.903104402   3- 4  1.834522965   8-10  2.069222119   8-12  2.071730422
       ( 1.536256691)       ( 1.536256691)       ( 0.970787746)       ( 1.094985190)       ( 1.096312526)

  8-14  2.075368508   9-11  2.069222119   9-13  2.071730422   9-15  2.075368508
       ( 1.098237719)       ( 1.094985190)       ( 1.096312526)       ( 1.098237719)

 Bond angles

  1-2-3  104.76902697   1-2-8  110.92255387   1-2-9  110.92255387   2-1-5  110.97328220

  2- 1- 6  110.22090701   2- 1- 7  110.22090701   2- 3- 4  107.25071562   2- 8-10  110.21836376

  2- 8-12  111.57747468   2- 8-14  110.77023896   2- 9-11  110.21836376   2- 9-13  111.57747468

  2- 9-15  110.77023896   3- 2- 8  109.53648747   3- 2- 9  109.53648747   5- 1- 6  108.61190457

  5- 1- 7  108.61190457   6- 1- 7  108.12870271   8- 2- 9  110.96453384  10- 8-12  108.52192632

 10- 8-14  108.08997829  11- 9-13  108.52192632  11- 9-15  108.08997829  12- 8-14  107.54424578

 13- 9-15  107.54424578

 NUCLEAR CHARGE:                   42
 NUMBER OF PRIMITIVE AOS:         335
 NUMBER OF SYMMETRY AOS:          310
 NUMBER OF CONTRACTIONS:          215   ( 215A   )
 NUMBER OF CORE ORBITALS:           5   (   5A   )
 NUMBER OF VALENCE ORBITALS:       30   (  30A   )


 NUCLEAR REPULSION ENERGY  198.77359127


 Eigenvalues of metric

         1 0.262E-03 0.510E-03 0.539E-03 0.594E-03 0.697E-03 0.755E-03 0.210E-02 0.239E-02


 Contracted 2-electron integrals neglected if value below      1.0D-11
 AO integral compression algorithm  1   Integral accuracy      1.0D-11

     977.797 MB (compressed) written to integral file ( 41.7%)


 NUMBER OF SORTED TWO-ELECTRON INTEGRALS:  269595810.     BUFFER LENGTH:  32768
 NUMBER OF SEGMENTS:  17  SEGMENT LENGTH:   15999762      RECORD LENGTH: 524288

 Memory used in sort:      16.56 MW

 SORT1 READ   292827432. AND WROTE   238500613. INTEGRALS IN    690 RECORDS. CPU TIME:     3.30 SEC, REAL TIME:     6.41 SEC
 SORT2 READ   238500613. AND WROTE   269595810. INTEGRALS IN   3730 RECORDS. CPU TIME:     5.27 SEC, REAL TIME:     6.72 SEC

 FILE SIZES:   FILE 1:  1009.7 MBYTE,  FILE 4:  2894.1 MBYTE,   TOTAL:   3903.8 MBYTE

 OPERATOR DM      FOR CENTER  0  COORDINATES:    0.000000    0.000000    0.000000


 **********************************************************************************************************************************
 DATASETS  * FILE   NREC   LENGTH (MB)   RECORD NAMES
              1      19      926.27       500      610      700      900      950      970     1000      129      960     1100   
                                          VAR    BASINP    GEOM    SYMINP    ZMAT    AOBASIS   BASIS     P2S    ABASIS      S 
                                         1400     1410     1200     1210     1080     1600     1650     1300     1700   
                                           T        V       H0       H01     AOSYM     SMH    MOLCAS    ERIS     OPER   

 PROGRAMS   *        TOTAL       INT
 CPU TIMES  *        24.48     24.34
 REAL TIME  *        57.81 SEC
 DISK USED  *         3.90 GB      
 **********************************************************************************************************************************

 Density functional group M06-HF=XC-M06-HF
 Functional: XC-M06-HF(via MFM 1.6)                                            Gradient terms: 1
 Use grid at  1800.2


 Exact exchange will be calculated, factor:  1.0000

 Functional: XC-M06-HF                 Factor:  1.0000

 Generated new metagrid on record  1800.2 with target accuracy 1.0D-06 and 54596 points in CPU time    1.6
 Computed new grid on record 1800.1 in CPU time    1.7
  175219 words reserved for DFT integration

 PROGRAM * UKS-SCF (Unrestricted Kohn-Sham)     Authors: W. Meyer, H.-J. Werner, P.J. Knowles, 1993

 NUMBER OF ELECTRONS:      21+   21-    SPACE SYMMETRY=1    SPIN SYMMETRY: Singlet 
 CONVERGENCE THRESHOLDS:    1.00E-05 (Density)    1.00E-06 (Energy)
 MAX. NUMBER OF ITERATIONS:       60
 INTERPOLATION TYPE:            DIIS
 INTERPOLATION STEPS:              2 (START)      1 (STEP)
 LEVEL SHIFTS:                 -0.20 (ALPHA)  -0.20 (BETA) 



 Use fine grid record 1800.2 for energy threshold  1.0D-06
 Orbital guess generated from atomic densities. Full valence occupancy:   21

 Molecular orbital dump at record        2200.2

 Initial alpha occupation  21
 Initial beta  occupation  21

 ITERATION    DDIFF          GRAD             ENERGY        2-EL.EN.            DIPOLE MOMENTS         DIIS
    1      0.000D+00      0.000D+00      -233.57662291    562.196258    0.73272   -0.88202    0.00000    0
    2      0.550D-02      0.220D-02      -233.67252534    555.622085    0.40241   -0.57809   -0.00000    1
    3      0.103D-02      0.788D-03      -233.68418703    556.841725    0.40590   -0.60745   -0.00000    2
    4      0.800D-03      0.314D-03      -233.68809272    556.685821    0.37622   -0.57225   -0.00000    3
    5      0.490D-03      0.137D-03      -233.68908171    556.693941    0.36036   -0.57558   -0.00000    4
    6      0.198D-03      0.343D-04      -233.68915379    556.683776    0.35658   -0.57511   -0.00000    5
    7      0.757D-04      0.816D-05      -233.68915841    556.687616    0.35584   -0.57639   -0.00000    6
    8      0.149D-04      0.180D-05      -233.68915864    556.686036    0.35558   -0.57640   -0.00000    7
    9      0.325D-05      0.588D-06      -233.68915867    556.686962    0.35550   -0.57647   -0.00000    6
   10      0.134D-05      0.226D-06      -233.68915867    556.686685    0.35547   -0.57649   -0.00000    6

 Final alpha occupancy:  21
 Final beta  occupancy:  21

 !UKS STATE 1.1 Energy               -233.689158668891
 Nuclear energy                       198.77359127
 One-electron energy                 -709.32795964
 Two-electron energy                  278.34334246
 Density functional                    -1.47813276     XC-M06-HF=-1.47813276
 Virial quotient                       -1.00631689
 !UKS STATE 1.1 Dipole moment           0.35547198    -0.57648572    -0.00000000
 Dipole moment /Debye                   0.90346046    -1.46518458    -0.00000000

 Orbital energies for positive spin:

         1.1          2.1          3.1          4.1          5.1          6.1          7.1          8.1          9.1         10.1
    -20.191201   -11.013553   -10.950007   -10.949988   -10.944723    -1.255731    -0.998347    -0.892993    -0.891809    -0.749425

        11.1         12.1         13.1         14.1         15.1         16.1         17.1         18.1         19.1         20.1
     -0.659224    -0.619458    -0.617307    -0.573523    -0.555513    -0.526412    -0.515447    -0.509057    -0.502170    -0.455306

        21.1         22.1         23.1
     -0.430520     0.070590     0.118661

 Orbital energies for negative spin:

         1.1          2.1          3.1          4.1          5.1          6.1          7.1          8.1          9.1         10.1
    -20.191201   -11.013553   -10.950007   -10.949988   -10.944723    -1.255731    -0.998347    -0.892993    -0.891809    -0.749425

        11.1         12.1         13.1         14.1         15.1         16.1         17.1         18.1         19.1         20.1
     -0.659224    -0.619458    -0.617307    -0.573523    -0.555513    -0.526412    -0.515447    -0.509057    -0.502170    -0.455306

        21.1         22.1         23.1
     -0.430520     0.070590     0.118661

 HOMO     21.1    -0.430520 =     -11.7151eV
 LUMO     22.1     0.070590 =       1.9208eV
 LUMO-HOMO         0.501110 =      13.6359eV

 EXPECTATION VALUE OF S**2:            -0.00000000

 Natural orbitals saved to record    2200.2 (Orbital set 3)

 Orbital spaces for UNO-CAS (Min. occupation: 0.020  Max. occupation: 1.980):

 Closed:       21
 Active:        0


 **********************************************************************************************************************************
 DATASETS  * FILE   NREC   LENGTH (MB)   RECORD NAMES
              1      20      928.02       500      610      700      900      950      970     1000      129      960     1100   
                                          VAR    BASINP    GEOM    SYMINP    ZMAT    AOBASIS   BASIS     P2S    ABASIS      S 
                                         1400     1410     1200     1210     1080     1600     1650     1300     1700     1800   
                                           T        V       H0       H01     AOSYM     SMH    MOLCAS    ERIS     OPER     GRID   

              2       5        4.89       700     1000      520     1800     2200   
                                         GEOM     BASIS   MCVARS    GRID      UKS  

 PROGRAMS   *        TOTAL       UKS       INT
 CPU TIMES  *       219.34    194.86     24.34
 REAL TIME  *       254.60 SEC
 DISK USED  *         3.90 GB      
 **********************************************************************************************************************************


 PROGRAM * Intrinsic Basis Bonding Analysis (IBBA)          Author: G. Knizia

 Molecular orbitals read from record     2200.2  Type=UKS/ALPHA (state 1.1)
 Fock matrix read from record            2200.2  Type=UKS/TOTAL (state 1.1)
 Orbital energies read from record       2200.2  Type=UKS/ALPHA (state 1.1)
 Density matrix read from record         2200.2  Type=UKS/CHARGE (state 1.1)

 Number of core orbitals:           5 (   5 )
 Number of closed-shell orbitals:  16 (  16 )

 Basis set MINAO-AUTO-PP generated.      Number of basis functions:   35 

 Polarized AO type:                A = (O Ot + (1-O)(1-Ot)) P12
 Orthogonalization method:         Symmetric (Loewdin)
 Localization functional:          L = sum[A,i] <i|n_A|i>^4 -> max

 Localization group 1:  21 orbitals, occupancy  2.000
 Iterative localization: IB/PM,    7 iter; Final gradient 0.58E-08

 Bond order analysis:       [THRPRINT= 0.020]

   CEN ATOM   CEN ATOM     WIBERG.BO      RENORM.BO
     1   C  -   2   C       0.994571       0.993198
     1   C  -   5   H       0.964568       0.988224
     1   C  -   7   H       0.958529       0.983830
     1   C  -   6   H       0.958529       0.983830

     2   C  -   8   C       0.994808       0.978561
     2   C  -   9   C       0.994808       0.978561
     2   C  -   1   C       0.994571       0.993198
     2   C  -   3   O       0.936914       0.957183

     3   O  -   2   C       0.936914       0.957183
     3   O  -   4   H       0.865510       0.979419
     3   O  -   9   C       0.023165       0.012013
     3   O  -   8   C       0.023165       0.012013

     4   H  -   3   O       0.865510       0.979419

     5   H  -   1   C       0.964568       0.988224

     6   H  -   1   C       0.958529       0.983830

     7   H  -   1   C       0.958529       0.983830

     8   C  -   2   C       0.994808       0.978561
     8   C  -  14   H       0.963723       0.984174
     8   C  -  12   H       0.961194       0.986006
     8   C  -  10   H       0.959011       0.983840
     8   C  -   3   O       0.023165       0.012013

     9   C  -   2   C       0.994808       0.978561
     9   C  -  15   H       0.963723       0.984174
     9   C  -  13   H       0.961194       0.986006
     9   C  -  11   H       0.959011       0.983840
     9   C  -   3   O       0.023165       0.012013

    10   H  -   8   C       0.959011       0.983840

    11   H  -   9   C       0.959011       0.983840

    12   H  -   8   C       0.961194       0.986006

    13   H  -   9   C       0.961194       0.986006

    14   H  -   8   C       0.963723       0.984174

    15   H  -   9   C       0.963723       0.984174


 Valency analysis:

   CEN ATOM   TOT.VALENCE
     1   C       3.929834
     2   C       3.931667
     3   O       1.904395
     4   H       0.882293
     5   H       0.982268
     6   H       0.978323
     7   H       0.978323
     8   C       3.933472
     9   C       3.933472
    10   H       0.978247
    11   H       0.978247
    12   H       0.980547
    13   H       0.980547
    14   H       0.983517
    15   H       0.983517

 Total charge composition:

   CEN ATOM         s          p       ELECTRONS ->P.CHARGE
     1   C       3.01831    3.38752      6.40583   -0.40583
     2   C       2.92917    2.85242      5.78159    0.21841
     3   O       3.61064    4.96101      8.57165   -0.57165
     4   H       0.65692                 0.65692    0.34308
     5   H       0.86684                 0.86684    0.13316
     6   H       0.85277                 0.85277    0.14723
     7   H       0.85277                 0.85277    0.14723
     8   C       3.02288    3.39829      6.42117   -0.42117
     9   C       3.02288    3.39829      6.42117   -0.42117
    10   H       0.85251                 0.85251    0.14749
    11   H       0.85251                 0.85251    0.14749
    12   H       0.86053                 0.86053    0.13947
    13   H       0.86053                 0.86053    0.13947
    14   H       0.87161                 0.87161    0.12839
    15   H       0.87161                 0.87161    0.12839

 Total charge composition, AO contributions:

   CEN ATOM SHL      SPHERICAL COMPONENTS
     1   C  1s       1.99050
     1   C  2s       1.02781
     1   C  2p       1.03102    1.16996    1.18654

     2   C  1s       1.99219
     2   C  2s       0.93698
     2   C  2p       1.02764    0.79898    1.02580

     3   O  1s       1.99695
     3   O  2s       1.61369
     3   O  2p       1.49071    1.50534    1.96496

     4   H  1s       0.65692

     5   H  1s       0.86684

     6   H  1s       0.85277

     7   H  1s       0.85277

     8   C  1s       1.99061
     8   C  2s       1.03227
     8   C  2p       1.15040    1.15156    1.09633

     9   C  1s       1.99061
     9   C  2s       1.03227
     9   C  2p       1.15040    1.15156    1.09633

    10   H  1s       0.85251

    11   H  1s       0.85251

    12   H  1s       0.86053

    13   H  1s       0.86053

    14   H  1s       0.87161

    15   H  1s       0.87161

 Summary of localized orbital composition:   [THRPRINT= 0.020]

   ORB  GRP  ORB.ENERGY      CENTERS/CHARGES
     1   1   -20.027972      O  3   2.000
     2   1   -10.915596      C  2   2.000
     3   1   -10.828991      C  9   2.000
     4   1   -10.828991      C  8   2.000
     5   1   -10.822765      C  1   2.000
     6   1    -0.967105      O  3   1.344   H  4   0.647
     7   1    -0.923638      O  3   1.275   C  2   0.710
     8   1    -0.762095      O  3   1.984
     9   1    -0.737073      C  8   0.996   C  2   0.989
    10   1    -0.737073      C  9   0.996   C  2   0.989
    11   1    -0.734633      C  2   1.004   C  1   0.974   (other: 0.022)
    12   1    -0.672514      C  9   1.135   H 13   0.852
    13   1    -0.672514      C  8   1.135   H 12   0.852
    14   1    -0.670021      C  8   1.124   H 14   0.865
    15   1    -0.670021      C  9   1.124   H 15   0.865
    16   1    -0.668013      C  9   1.146   H 11   0.845
    17   1    -0.668013      C  8   1.146   H 10   0.845
    18   1    -0.666947      C  1   1.128   H  5   0.860
    19   1    -0.663535      C  1   1.145   H  6   0.845
    20   1    -0.663535      C  1   1.145   H  7   0.845
    21   1    -0.500696      O  3   1.965   (other: 0.035)

 Localized orbitals saved to record      2200.2  (orbital set 4)


 **********************************************************************************************************************************
 DATASETS  * FILE   NREC   LENGTH (MB)   RECORD NAMES
              1      20      928.02       500      610      700      900      950      970     1000      129      960     1100   
                                          VAR    BASINP    GEOM    SYMINP    ZMAT    AOBASIS   BASIS     P2S    ABASIS      S 
                                         1400     1410     1200     1210     1080     1600     1650     1300     1700     1800   
                                           T        V       H0       H01     AOSYM     SMH    MOLCAS    ERIS     OPER     GRID   

              2       5        5.27       700     1000      520     1800     2200   
                                         GEOM     BASIS   MCVARS    GRID      UKS  

 PROGRAMS   *        TOTAL      IBBA       UKS       INT
 CPU TIMES  *       219.40      0.06    194.86     24.34
 REAL TIME  *       254.81 SEC
 DISK USED  *         3.90 GB      
 **********************************************************************************************************************************
 Molecular orbitals read from record     2200.2  Type=UKS/LOCAL(IBO)  
 Occupation numbers read from record     2200.2  Type=UKS/LOCAL(IBO)  
 Orbital energies read from record       2200.2  Type=UKS/LOCAL(IBO)  
 Redundancy group numbers read from rec  2200.2  Type=UKS/BETA (state 1.1)

 IBBA/TZVP energy=      0.000000000000

        UKS-SCF 
   -233.68915867
 **********************************************************************************************************************************
 Molpro calculation terminated
