
 Primary working directories    : /tmp/sb13343
 Secondary working directories  : /tmp/sb13343
 Wavefunction directory         : /panfs/panasas01/chem/sb13343/wfu/
 Main file repository           : /tmp/sb13343/

 SHA1      : b4a5b34a9e711420743f49e6833241d17c61fb3c
 NAME      : 2099.9.b4a5b34
 ARCHNAME  : linux/x86_64_openmp
 FC        : /cm/shared/languages/GCC-6.1/bin/gfortran
 BLASLIB   : -lblas
 id        : simonbennie

 Nodes     nprocs
 node32-007    1

 Using customized tuning parameters: mindgm=1; mindgv=20; mindgc=4; mindgr=1; noblas=0; minvec=7
 default implementation of scratch files=df  

 memory,500,m
 geomtyp=xyz
 nosym
 noorient
 geometry={
 C         -1.53233        0.02247        0.00000
 C         -0.00192        0.01421        0.00000
 O          0.37239        1.40356        0.00000
 H          1.34248        1.44036        0.00000
 H         -1.92991       -0.99819        0.00000
 H         -1.90797        0.54382       -0.88653
 H         -1.90797        0.54382        0.88653
 C          0.54303       -0.66466       -1.26580
 C          0.54303       -0.66466        1.26580
 H          0.17836       -0.14752       -2.15943
 H          0.17836       -0.14752        2.15943
 H          0.23752       -1.71600       -1.32280
 H          0.23752       -1.71600        1.32280
 H          1.64084       -0.63767       -1.28032
 H          1.64084       -0.63767        1.28032
 }
 basis={ default,sto-3g }
 {ks,VWN80,direct;wf,42,1,0}
 {ibba,bonds=1}

 Variables initialized (895), CPU time= 0.00 sec
 Commands  initialized (725), CPU time= 0.01 sec, 591 directives.
 Default parameters read. Elapsed time= 0.07 sec

 Checking input...
 Passed
1


                                         ***  PROGRAM SYSTEM MOLPRO  ***
                                       Copyright, TTI GmbH Stuttgart, 2015
                                    Version 2099.9 linked May 26 2017 16:03:21


 **********************************************************************************************************************************
 LABEL *                                                                                 
  64 bit serial version                                                                  DATE: 09-Jun-17          TIME: 03:30:48  
 **********************************************************************************************************************************

 SHA1:             b4a5b34a9e711420743f49e6833241d17c61fb3c
 **********************************************************************************************************************************
 SETTING GEOMTYP        =    XYZ

 Variable memory set to  500000000 words,  buffer space 

 ZSYMEL=NOSYM

 SETTING BASIS          =    STO-3G


 Recomputing integrals since basis changed


 Using spherical harmonics

 Library entry C      S STO-3G               selected for orbital group  1
 Library entry C      P STO-3G               selected for orbital group  1
 Library entry O      S STO-3G               selected for orbital group  2
 Library entry O      P STO-3G               selected for orbital group  2
 Library entry H      S STO-3G               selected for orbital group  3


 PROGRAM * SEWARD (Integral evaluation for generally contracted gaussian basis sets)     Author: Roland Lindh, 1990

 Geometry written to block  1 of record 700


 Point group  C1  



 ATOMIC COORDINATES

 NR  ATOM    CHARGE       X              Y              Z

   1  C       6.00   -2.895684032    0.042462146    0.000000000
   2  C       6.00   -0.003628274    0.026853008    0.000000000
   3  O       8.00    0.703715112    2.652343999    0.000000000
   4  H       1.00    2.536919528    2.721885921    0.000000000
   5  H       1.00   -3.647001345   -1.886305720    0.000000000
   6  H       1.00   -3.605540754    1.027670861   -1.675298901
   7  H       1.00   -3.605540754    1.027670861    1.675298901
   8  C       6.00    1.026177977   -1.256025366   -2.392015328
   9  C       6.00    1.026177977   -1.256025366    2.392015328
  10  H       1.00    0.337051552   -0.278772398   -4.080731285
  11  H       1.00    0.337051552   -0.278772398    4.080731285
  12  H       1.00    0.448847749   -3.242770030   -2.499729718
  13  H       1.00    0.448847749   -3.242770030    2.499729718
  14  H       1.00    3.100738214   -1.205021658   -2.419454152
  15  H       1.00    3.100738214   -1.205021658    2.419454152

 Bond lengths in Bohr (Angstrom)

 1-2  2.892097881  1-5  2.069933136  1-6  2.069096224  1-7  2.069096224  2-3  2.719106031
     ( 1.530432290)     ( 1.095361444)     ( 1.094918569)     ( 1.094918569)     ( 1.438888946)

  2- 8  2.903104402   2- 9  2.903104402   3- 4  1.834522965   8-10  2.069222119   8-12  2.071730422
       ( 1.536256691)       ( 1.536256691)       ( 0.970787746)       ( 1.094985190)       ( 1.096312526)

  8-14  2.075368508   9-11  2.069222119   9-13  2.071730422   9-15  2.075368508
       ( 1.098237719)       ( 1.094985190)       ( 1.096312526)       ( 1.098237719)

 Bond angles

  1-2-3  104.76902697   1-2-8  110.92255387   1-2-9  110.92255387   2-1-5  110.97328220

  2- 1- 6  110.22090701   2- 1- 7  110.22090701   2- 3- 4  107.25071562   2- 8-10  110.21836376

  2- 8-12  111.57747468   2- 8-14  110.77023896   2- 9-11  110.21836376   2- 9-13  111.57747468

  2- 9-15  110.77023896   3- 2- 8  109.53648747   3- 2- 9  109.53648747   5- 1- 6  108.61190457

  5- 1- 7  108.61190457   6- 1- 7  108.12870271   8- 2- 9  110.96453384  10- 8-12  108.52192632

 10- 8-14  108.08997829  11- 9-13  108.52192632  11- 9-15  108.08997829  12- 8-14  107.54424578

 13- 9-15  107.54424578

 NUCLEAR CHARGE:                   42
 NUMBER OF PRIMITIVE AOS:         105
 NUMBER OF SYMMETRY AOS:          105
 NUMBER OF CONTRACTIONS:           35   (  35A   )
 NUMBER OF CORE ORBITALS:           5   (   5A   )
 NUMBER OF VALENCE ORBITALS:       30   (  30A   )


 NUCLEAR REPULSION ENERGY  198.77359127


 Eigenvalues of metric

         1 0.207E+00 0.227E+00 0.228E+00 0.304E+00 0.354E+00 0.360E+00 0.361E+00 0.363E+00


 Contracted 2-electron integrals neglected if value below      1.0D-11
 AO integral compression algorithm  1   Integral accuracy      1.0D-11

     1.573 MB (compressed) written to integral file ( 87.8%)


 NUMBER OF SORTED TWO-ELECTRON INTEGRALS:     198765.     BUFFER LENGTH:  32768
 NUMBER OF SEGMENTS:   1  SEGMENT LENGTH:     198765      RECORD LENGTH: 524288

 Memory used in sort:       0.76 MW

 SORT1 READ      224962. AND WROTE      188577. INTEGRALS IN      1 RECORDS. CPU TIME:     0.01 SEC, REAL TIME:     0.02 SEC
 SORT2 READ      188577. AND WROTE      198765. INTEGRALS IN      6 RECORDS. CPU TIME:     0.02 SEC, REAL TIME:     0.02 SEC

 FILE SIZES:   FILE 1:    31.8 MBYTE,  FILE 4:     4.2 MBYTE,   TOTAL:     36.0 MBYTE

 OPERATOR DM      FOR CENTER  0  COORDINATES:    0.000000    0.000000    0.000000


 **********************************************************************************************************************************
 DATASETS  * FILE   NREC   LENGTH (MB)   RECORD NAMES
              1      19       31.10       500      610      700      900      950      970     1000      129      960     1100   
                                          VAR    BASINP    GEOM    SYMINP    ZMAT    AOBASIS   BASIS     P2S    ABASIS      S 
                                         1400     1410     1200     1210     1080     1600     1650     1300     1700   
                                           T        V       H0       H01     AOSYM     SMH    MOLCAS    ERIS     OPER   

 PROGRAMS   *        TOTAL       INT
 CPU TIMES  *         0.61      0.47
 REAL TIME  *         0.94 SEC
 DISK USED  *        36.55 MB      
 **********************************************************************************************************************************

 Density functional group VWN80=VWN5
 Functional: VWN5(Automatically generated (new) VWN5)                          Gradient terms: 0
 Use grid at  1800.2

 Functional: VWN5                      Factor:  1.0000

 Generated new metagrid on record  1800.2 with target accuracy 1.0D-06 and 53396 points in CPU time    1.6
 Computed new grid on record 1800.1 in CPU time    1.8
   19034 words reserved for DFT integration

 PROGRAM * RKS-SCF (Restricted closed shell Kohn-Sham)     Authors: W. Meyer, H.-J. Werner, P.J. Knowles, 1993

 NUMBER OF ELECTRONS:      21+   21-    SPACE SYMMETRY=1    SPIN SYMMETRY: Singlet 
 CONVERGENCE THRESHOLDS:    1.00E-05 (Density)    1.00E-06 (Energy)
 MAX. NUMBER OF ITERATIONS:       60
 INTERPOLATION TYPE:            DIIS
 INTERPOLATION STEPS:              2 (START)      1 (STEP)
 LEVEL SHIFTS:                  0.00 (CLOSED)  0.00 (OPEN) 



 Use fine grid record 1800.2 for energy threshold  1.0D-06
 Orbital guess generated from atomic densities. Full valence occupancy:   21

 Molecular orbital dump at record        2100.2

 Initial occupancy:  21

 ITERATION    DDIFF          GRAD             ENERGY        2-EL.EN.            DIPOLE MOMENTS         DIIS   ORB.
    1      0.000D+00      0.000D+00      -199.33278545    623.132227    0.38835    0.15646    0.00000    0    start
    2      0.000D+00      0.187D-01      -199.25037815    607.393976   -0.09386   -0.19267   -0.00000    1    diag
    3      0.623D-01      0.244D-01      -199.44529298    615.629444    0.15121    0.23094    0.00000    2    diag
    4      0.365D-01      0.218D-02      -199.44671161    616.090611    0.19561    0.06635    0.00000    3    diag
    5      0.452D-02      0.763D-03      -199.44690270    615.879770    0.17424    0.10588    0.00000    4    diag
    6      0.127D-02      0.148D-03      -199.44690861    615.890685    0.17649    0.10481    0.00000    5    diag
    7      0.242D-03      0.407D-04      -199.44690910    615.887216    0.17709    0.10482    0.00000    6    diag
    8      0.615D-04      0.422D-05      -199.44690911    615.887274    0.17680    0.10480    0.00000    7    diag
    9      0.946D-05      0.129D-05      -199.44690911    615.887071    0.17683    0.10480    0.00000    0    orth

 Final occupancy:  21

 !RKS STATE 1.1 Energy               -199.446909110236
 Nuclear energy                       198.77359127
 One-electron energy                 -703.51024552
 Two-electron energy                  307.94353529
 Density functional                    -2.65379015     VWN5=-2.65379015
 Virial quotient                       -0.89429652
 !RKS STATE 1.1 Dipole moment           0.17682727     0.10479737     0.00000000
 Dipole moment /Debye                   0.44942064     0.26635090     0.00000000

 Orbital energies:

         1.1          2.1          3.1          4.1          5.1          6.1          7.1          8.1          9.1         10.1
    -15.815831    -7.741959    -7.735349    -7.728140    -7.725696    -0.328861    -0.182280    -0.117997    -0.114945     0.018148

        11.1         12.1         13.1         14.1         15.1         16.1         17.1         18.1         19.1         20.1
      0.059203     0.080009     0.086972     0.134206     0.138569     0.166551     0.180141     0.206954     0.212779     0.406265

        21.1         22.1         23.1
      0.499115     0.748530     0.795571

 HOMO     21.1     0.499115 =      13.5816eV
 LUMO     22.1     0.748530 =      20.3685eV
 LUMO-HOMO         0.249414 =       6.7869eV


 **********************************************************************************************************************************
 DATASETS  * FILE   NREC   LENGTH (MB)   RECORD NAMES
              1      20       32.81       500      610      700      900      950      970     1000      129      960     1100   
                                          VAR    BASINP    GEOM    SYMINP    ZMAT    AOBASIS   BASIS     P2S    ABASIS      S 
                                         1400     1410     1200     1210     1080     1600     1650     1300     1700     1800   
                                           T        V       H0       H01     AOSYM     SMH    MOLCAS    ERIS     OPER     GRID   

              2       5        3.02       700     1000      520     1800     2100   
                                         GEOM     BASIS   MCVARS    GRID      RKS  

 PROGRAMS   *        TOTAL        KS       INT
 CPU TIMES  *         4.42      3.81      0.47
 REAL TIME  *         4.88 SEC
 DISK USED  *        36.55 MB      
 **********************************************************************************************************************************


 PROGRAM * Intrinsic Basis Bonding Analysis (IBBA)          Author: G. Knizia

 Molecular orbitals read from record     2100.2  Type=RKS/CANONICAL (state 1.1)
 Fock matrix read from record            2100.2  Type=RKS/TOTAL (state 1.1)
 Orbital energies read from record       2100.2  Type=RKS/CANONICAL (state 1.1)
 Density matrix read from record         2100.2  Type=RKS/CHARGE (state 1.1)

 Number of core orbitals:           5 (   5 )
 Number of closed-shell orbitals:  16 (  16 )

 Basis set MINAO-AUTO-PP generated.      Number of basis functions:   35 

 Polarized AO type:                A = (O Ot + (1-O)(1-Ot)) P12
 Orthogonalization method:         Symmetric (Loewdin)
 Localization functional:          L = sum[A,i] <i|n_A|i>^4 -> max

 Localization group 1:  21 orbitals, occupancy  2.000
 Iterative localization: IB/PM,    7 iter; Final gradient 0.84E-08

 Bond order analysis:       [THRPRINT= 0.020]

   CEN ATOM   CEN ATOM     WIBERG.BO      RENORM.BO
     1   C  -   2   C       0.972977       0.976822
     1   C  -   5   H       0.970757       0.984395
     1   C  -   6   H       0.969033       0.981632
     1   C  -   7   H       0.969033       0.981632

     2   C  -   3   O       1.055846       1.008882
     2   C  -   1   C       0.972977       0.976822
     2   C  -   9   C       0.963247       0.936611
     2   C  -   8   C       0.963247       0.936611

     3   O  -   2   C       1.055846       1.008882
     3   O  -   4   H       0.974254       0.975325
     3   O  -   9   C       0.048144       0.025174
     3   O  -   8   C       0.048144       0.025174

     4   H  -   3   O       0.974254       0.975325

     5   H  -   1   C       0.970757       0.984395

     6   H  -   1   C       0.969033       0.981632

     7   H  -   1   C       0.969033       0.981632

     8   C  -  10   H       0.969508       0.980862
     8   C  -  14   H       0.968734       0.980397
     8   C  -  12   H       0.967825       0.977686
     8   C  -   2   C       0.963247       0.936611
     8   C  -   3   O       0.048144       0.025174

     9   C  -  11   H       0.969508       0.980862
     9   C  -  15   H       0.968734       0.980397
     9   C  -  13   H       0.967825       0.977686
     9   C  -   2   C       0.963247       0.936611
     9   C  -   3   O       0.048144       0.025174

    10   H  -   8   C       0.969508       0.980862

    11   H  -   9   C       0.969508       0.980862

    12   H  -   8   C       0.967825       0.977686

    13   H  -   9   C       0.967825       0.977686

    14   H  -   8   C       0.968734       0.980397

    15   H  -   9   C       0.968734       0.980397


 Valency analysis:

   CEN ATOM   TOT.VALENCE
     1   C       3.952195
     2   C       3.979111
     3   O       2.205261
     4   H       0.997172
     5   H       0.996182
     6   H       0.996126
     7   H       0.996126
     8   C       3.952957
     9   C       3.952957
    10   H       0.996682
    11   H       0.996682
    12   H       0.996498
    13   H       0.996498
    14   H       0.997051
    15   H       0.997051

 Total charge composition:

   CEN ATOM         s          p       ELECTRONS ->P.CHARGE
     1   C       2.88705    3.31607      6.20312   -0.20312
     2   C       2.87654    3.06542      5.94196    0.05804
     3   O       3.60564    4.39474      8.00038   -0.00038
     4   H       0.94682                 0.94682    0.05318
     5   H       0.93821                 0.93821    0.06179
     6   H       0.93776                 0.93776    0.06224
     7   H       0.93776                 0.93776    0.06224
     8   C       2.89333    3.32474      6.21807   -0.21807
     9   C       2.89333    3.32474      6.21807   -0.21807
    10   H       0.94240                 0.94240    0.05760
    11   H       0.94240                 0.94240    0.05760
    12   H       0.94083                 0.94083    0.05917
    13   H       0.94083                 0.94083    0.05917
    14   H       0.94570                 0.94570    0.05430
    15   H       0.94570                 0.94570    0.05430

 Total charge composition, AO contributions:

   CEN ATOM SHL      SPHERICAL COMPONENTS
     1   C  1s       1.99809
     1   C  2s       0.88896
     1   C  2p       1.07179    1.12207    1.12221

     2   C  1s       1.99847
     2   C  2s       0.87807
     2   C  2p       1.04580    0.96949    1.05013

     3   O  1s       1.99893
     3   O  2s       1.60671
     3   O  2p       1.20795    1.27180    1.91499

     4   H  1s       0.94682

     5   H  1s       0.93821

     6   H  1s       0.93776

     7   H  1s       0.93776

     8   C  1s       1.99814
     8   C  2s       0.89519
     8   C  2p       1.11117    1.11459    1.09898

     9   C  1s       1.99814
     9   C  2s       0.89519
     9   C  2p       1.11117    1.11459    1.09898

    10   H  1s       0.94240

    11   H  1s       0.94240

    12   H  1s       0.94083

    13   H  1s       0.94083

    14   H  1s       0.94570

    15   H  1s       0.94570

 Summary of localized orbital composition:   [THRPRINT= 0.020]

   ORB  GRP  ORB.ENERGY      CENTERS/CHARGES
     1   1   -15.712026      O  3   2.000
     2   1    -7.663397      C  2   2.000
     3   1    -7.653344      C  1   2.000
     4   1    -7.644822      C  8   2.000
     5   1    -7.644822      C  9   2.000
     6   1    -0.086399      O  3   1.050   H  4   0.939
     7   1    -0.054629      O  3   1.046   C  2   0.931   (other: 0.023)
     8   1     0.010685      C  1   0.996   C  2   0.974   (other: 0.031)
     9   1     0.020152      C  8   1.011   C  2   0.969   (other: 0.020)
    10   1     0.020152      C  9   1.011   C  2   0.969   (other: 0.020)
    11   1     0.041601      C  1   1.060   H  5   0.929
    12   1     0.041914      C  1   1.061   H  7   0.928
    13   1     0.041914      C  1   1.061   H  6   0.928
    14   1     0.042306      C  9   1.052   H 15   0.936
    15   1     0.042306      C  8   1.052   H 14   0.936
    16   1     0.043941      C  8   1.057   H 10   0.933
    17   1     0.043941      C  9   1.057   H 11   0.933
    18   1     0.046861      C  8   1.059   H 12   0.930
    19   1     0.046861      C  9   1.059   H 13   0.930
    20   1     0.233778      O  3   1.975   (other: 0.025)
    21   1     0.480881      O  3   1.915   C  2   0.039   C  8   0.021   C  9   0.021

 Localized orbitals saved to record      2100.2  (orbital set 2)


 **********************************************************************************************************************************
 DATASETS  * FILE   NREC   LENGTH (MB)   RECORD NAMES
              1      20       32.81       500      610      700      900      950      970     1000      129      960     1100   
                                          VAR    BASINP    GEOM    SYMINP    ZMAT    AOBASIS   BASIS     P2S    ABASIS      S 
                                         1400     1410     1200     1210     1080     1600     1650     1300     1700     1800   
                                           T        V       H0       H01     AOSYM     SMH    MOLCAS    ERIS     OPER     GRID   

              2       5        3.03       700     1000      520     1800     2100   
                                         GEOM     BASIS   MCVARS    GRID      RKS  

 PROGRAMS   *        TOTAL      IBBA        KS       INT
 CPU TIMES  *         4.46      0.03      3.81      0.47
 REAL TIME  *         5.30 SEC
 DISK USED  *        36.55 MB      
 **********************************************************************************************************************************
 Molecular orbitals read from record     2100.2  Type=RKS/LOCAL(IBO)  
 Occupation numbers read from record     2100.2  Type=RKS/LOCAL(IBO)  
 Orbital energies read from record       2100.2  Type=RKS/LOCAL(IBO)  
 Redundancy group numbers read from rec  2100.2  Type=RKS/LOCAL(IBO)  

 IBBA/STO-3G energy=      0.000000000000

        KS-SCF  
   -199.44690911
 **********************************************************************************************************************************
 Molpro calculation terminated
