
 Primary working directories    : /tmp/sb13343
 Secondary working directories  : /tmp/sb13343
 Wavefunction directory         : /panfs/panasas01/chem/sb13343/wfu/
 Main file repository           : /tmp/sb13343/

 SHA1      : b4a5b34a9e711420743f49e6833241d17c61fb3c
 NAME      : 2099.9.b4a5b34
 ARCHNAME  : linux/x86_64_openmp
 FC        : /cm/shared/languages/GCC-6.1/bin/gfortran
 BLASLIB   : -lblas
 id        : simonbennie

 Nodes     nprocs
 node32-007    1

 Using customized tuning parameters: mindgm=1; mindgv=20; mindgc=4; mindgr=1; noblas=0; minvec=7
 default implementation of scratch files=df  

 memory,500,m
 geomtyp=xyz
 nosym
 noorient
 geometry={
 C         -1.53233        0.02247        0.00000
 C         -0.00192        0.01421        0.00000
 O          0.37239        1.40356        0.00000
 H          1.34248        1.44036        0.00000
 H         -1.92991       -0.99819        0.00000
 H         -1.90797        0.54382       -0.88653
 H         -1.90797        0.54382        0.88653
 C          0.54303       -0.66466       -1.26580
 C          0.54303       -0.66466        1.26580
 H          0.17836       -0.14752       -2.15943
 H          0.17836       -0.14752        2.15943
 H          0.23752       -1.71600       -1.32280
 H          0.23752       -1.71600        1.32280
 H          1.64084       -0.63767       -1.28032
 H          1.64084       -0.63767        1.28032
 }
 basis={ default,svp }
 {ks,B-LYP,direct;wf,42,1,0}
 {ibba,bonds=1}

 Variables initialized (895), CPU time= 0.01 sec
 Commands  initialized (725), CPU time= 0.01 sec, 591 directives.
 Default parameters read. Elapsed time= 0.08 sec

 Checking input...
 Passed
1


                                         ***  PROGRAM SYSTEM MOLPRO  ***
                                       Copyright, TTI GmbH Stuttgart, 2015
                                    Version 2099.9 linked May 26 2017 16:03:21


 **********************************************************************************************************************************
 LABEL *                                                                                 
  64 bit serial version                                                                  DATE: 09-Jun-17          TIME: 03:24:29  
 **********************************************************************************************************************************

 SHA1:             b4a5b34a9e711420743f49e6833241d17c61fb3c
 **********************************************************************************************************************************
 SETTING GEOMTYP        =    XYZ

 Variable memory set to  500000000 words,  buffer space 

 ZSYMEL=NOSYM

 SETTING BASIS          =    SVP


 Recomputing integrals since basis changed


 Using spherical harmonics

 Library entry C      S def2-SVP             selected for orbital group  1
 Library entry C      P def2-SVP             selected for orbital group  1
 Library entry C      D def2-SVP             selected for orbital group  1
 Library entry O      S def2-SVP             selected for orbital group  2
 Library entry O      P def2-SVP             selected for orbital group  2
 Library entry O      D def2-SVP             selected for orbital group  2
 Library entry H      S def2-SVP             selected for orbital group  3
 Library entry H      P def2-SVP             selected for orbital group  3


 PROGRAM * SEWARD (Integral evaluation for generally contracted gaussian basis sets)     Author: Roland Lindh, 1990

 Geometry written to block  1 of record 700


 Point group  C1  



 ATOMIC COORDINATES

 NR  ATOM    CHARGE       X              Y              Z

   1  C       6.00   -2.895684032    0.042462146    0.000000000
   2  C       6.00   -0.003628274    0.026853008    0.000000000
   3  O       8.00    0.703715112    2.652343999    0.000000000
   4  H       1.00    2.536919528    2.721885921    0.000000000
   5  H       1.00   -3.647001345   -1.886305720    0.000000000
   6  H       1.00   -3.605540754    1.027670861   -1.675298901
   7  H       1.00   -3.605540754    1.027670861    1.675298901
   8  C       6.00    1.026177977   -1.256025366   -2.392015328
   9  C       6.00    1.026177977   -1.256025366    2.392015328
  10  H       1.00    0.337051552   -0.278772398   -4.080731285
  11  H       1.00    0.337051552   -0.278772398    4.080731285
  12  H       1.00    0.448847749   -3.242770030   -2.499729718
  13  H       1.00    0.448847749   -3.242770030    2.499729718
  14  H       1.00    3.100738214   -1.205021658   -2.419454152
  15  H       1.00    3.100738214   -1.205021658    2.419454152

 Bond lengths in Bohr (Angstrom)

 1-2  2.892097881  1-5  2.069933136  1-6  2.069096224  1-7  2.069096224  2-3  2.719106031
     ( 1.530432290)     ( 1.095361444)     ( 1.094918569)     ( 1.094918569)     ( 1.438888946)

  2- 8  2.903104402   2- 9  2.903104402   3- 4  1.834522965   8-10  2.069222119   8-12  2.071730422
       ( 1.536256691)       ( 1.536256691)       ( 0.970787746)       ( 1.094985190)       ( 1.096312526)

  8-14  2.075368508   9-11  2.069222119   9-13  2.071730422   9-15  2.075368508
       ( 1.098237719)       ( 1.094985190)       ( 1.096312526)       ( 1.098237719)

 Bond angles

  1-2-3  104.76902697   1-2-8  110.92255387   1-2-9  110.92255387   2-1-5  110.97328220

  2- 1- 6  110.22090701   2- 1- 7  110.22090701   2- 3- 4  107.25071562   2- 8-10  110.21836376

  2- 8-12  111.57747468   2- 8-14  110.77023896   2- 9-11  110.21836376   2- 9-13  111.57747468

  2- 9-15  110.77023896   3- 2- 8  109.53648747   3- 2- 9  109.53648747   5- 1- 6  108.61190457

  5- 1- 7  108.61190457   6- 1- 7  108.12870271   8- 2- 9  110.96453384  10- 8-12  108.52192632

 10- 8-14  108.08997829  11- 9-13  108.52192632  11- 9-15  108.08997829  12- 8-14  107.54424578

 13- 9-15  107.54424578

 NUCLEAR CHARGE:                   42
 NUMBER OF PRIMITIVE AOS:         195
 NUMBER OF SYMMETRY AOS:          190
 NUMBER OF CONTRACTIONS:          120   ( 120A   )
 NUMBER OF CORE ORBITALS:           5   (   5A   )
 NUMBER OF VALENCE ORBITALS:       30   (  30A   )


 NUCLEAR REPULSION ENERGY  198.77359127


 Eigenvalues of metric

         1 0.176E-02 0.546E-02 0.548E-02 0.123E-01 0.248E-01 0.256E-01 0.256E-01 0.275E-01


 Contracted 2-electron integrals neglected if value below      1.0D-11
 AO integral compression algorithm  1   Integral accuracy      1.0D-11

     101.974 MB (compressed) written to integral file ( 44.9%)


 NUMBER OF SORTED TWO-ELECTRON INTEGRALS:   26357430.     BUFFER LENGTH:  32768
 NUMBER OF SEGMENTS:   2  SEGMENT LENGTH:   15997996      RECORD LENGTH: 524288

 Memory used in sort:      16.56 MW

 SORT1 READ    28411733. AND WROTE    24096425. INTEGRALS IN     70 RECORDS. CPU TIME:     0.45 SEC, REAL TIME:     0.95 SEC
 SORT2 READ    24096425. AND WROTE    26357430. INTEGRALS IN    389 RECORDS. CPU TIME:     0.77 SEC, REAL TIME:     1.03 SEC

 FILE SIZES:   FILE 1:   132.7 MBYTE,  FILE 4:   293.6 MBYTE,   TOTAL:    426.4 MBYTE

 OPERATOR DM      FOR CENTER  0  COORDINATES:    0.000000    0.000000    0.000000


 **********************************************************************************************************************************
 DATASETS  * FILE   NREC   LENGTH (MB)   RECORD NAMES
              1      19      120.44       500      610      700      900      950      970     1000      129      960     1100   
                                          VAR    BASINP    GEOM    SYMINP    ZMAT    AOBASIS   BASIS     P2S    ABASIS      S 
                                         1400     1410     1200     1210     1080     1600     1650     1300     1700   
                                           T        V       H0       H01     AOSYM     SMH    MOLCAS    ERIS     OPER   

 PROGRAMS   *        TOTAL       INT
 CPU TIMES  *         4.54      4.40
 REAL TIME  *         5.97 SEC
 DISK USED  *       426.89 MB      
 **********************************************************************************************************************************

 Density functional group B-LYP=B88+LYP
 Functional: B88(Automatically generated (new) B88)                            Gradient terms: 1
 Functional: LYP(Automatically generated (new) LYP)                            Gradient terms: 1
 Use grid at  1800.2

 Functional: B88                       Factor:  1.0000
 Functional: LYP                       Factor:  1.0000

 Generated new metagrid on record  1800.2 with target accuracy 1.0D-06 and 53396 points in CPU time    1.8
 Computed new grid on record 1800.1 in CPU time    2.0
   99539 words reserved for DFT integration

 PROGRAM * RKS-SCF (Restricted closed shell Kohn-Sham)     Authors: W. Meyer, H.-J. Werner, P.J. Knowles, 1993

 NUMBER OF ELECTRONS:      21+   21-    SPACE SYMMETRY=1    SPIN SYMMETRY: Singlet 
 CONVERGENCE THRESHOLDS:    1.00E-05 (Density)    1.00E-06 (Energy)
 MAX. NUMBER OF ITERATIONS:       60
 INTERPOLATION TYPE:            DIIS
 INTERPOLATION STEPS:              2 (START)      1 (STEP)
 LEVEL SHIFTS:                  0.00 (CLOSED)  0.00 (OPEN) 



 Use fine grid record 1800.2 for energy threshold  1.0D-06
 Orbital guess generated from atomic densities. Full valence occupancy:   21

 Molecular orbital dump at record        2100.2

 Initial occupancy:  21

 ITERATION    DDIFF          GRAD             ENERGY        2-EL.EN.            DIPOLE MOMENTS         DIIS   ORB.
    1      0.000D+00      0.000D+00      -233.04551793    640.448869    0.71235   -0.81333    0.00000    0    start
    2      0.000D+00      0.121D-01      -232.53888321    591.237656   -0.43861    0.60178    0.00000    1    diag
    3      0.382D-01      0.192D-01      -233.36449631    623.117331    0.42660   -0.59624    0.00000    2    diag
    4      0.293D-01      0.184D-02      -233.36882731    621.736539    0.34861   -0.32413    0.00000    3    diag
    5      0.248D-02      0.990D-03      -233.37051203    621.679169    0.35223   -0.42624    0.00000    4    diag
    6      0.921D-03      0.217D-03      -233.37058572    621.810344    0.35636   -0.41104    0.00000    5    diag
    7      0.230D-03      0.813D-04      -233.37059731    621.789130    0.35777   -0.41269    0.00000    6    diag
    8      0.643D-04      0.753D-05      -233.37059743    621.799151    0.35717   -0.41420    0.00000    7    diag
    9      0.109D-04      0.213D-05      -233.37059744    621.799087    0.35738   -0.41376    0.00000    8    diag
   10      0.257D-05      0.580D-06      -233.37059744    621.798626    0.35745   -0.41373    0.00000    0    orth

 Final occupancy:  21

 !RKS STATE 1.1 Energy               -233.370597443300
 Nuclear energy                       198.77359127
 One-electron energy                 -709.15309138
 Two-electron energy                  310.89931277
 Density functional                   -33.89041010     B88=-32.51815923 LYP= -1.37225087
 Virial quotient                       -1.01031594
 !RKS STATE 1.1 Dipole moment           0.35745082    -0.41373262     0.00000000
 Dipole moment /Debye                   0.90848985    -1.05153455     0.00000000

 Orbital energies:

         1.1          2.1          3.1          4.1          5.1          6.1          7.1          8.1          9.1         10.1
    -18.764730    -9.970314    -9.912593    -9.912574    -9.907502    -0.899129    -0.694439    -0.607885    -0.606964    -0.496733

        11.1         12.1         13.1         14.1         15.1         16.1         17.1         18.1         19.1         20.1
     -0.426266    -0.391873    -0.390344    -0.354495    -0.343272    -0.327345    -0.315453    -0.300486    -0.296535    -0.263927

        21.1         22.1         23.1
     -0.207475     0.019388     0.066270

 HOMO     21.1    -0.207475 =      -5.6457eV
 LUMO     22.1     0.019388 =       0.5276eV
 LUMO-HOMO         0.226863 =       6.1733eV


 **********************************************************************************************************************************
 DATASETS  * FILE   NREC   LENGTH (MB)   RECORD NAMES
              1      20      122.15       500      610      700      900      950      970     1000      129      960     1100   
                                          VAR    BASINP    GEOM    SYMINP    ZMAT    AOBASIS   BASIS     P2S    ABASIS      S 
                                         1400     1410     1200     1210     1080     1600     1650     1300     1700     1800   
                                           T        V       H0       H01     AOSYM     SMH    MOLCAS    ERIS     OPER     GRID   

              2       5        3.30       700     1000      520     1800     2100   
                                         GEOM     BASIS   MCVARS    GRID      RKS  

 PROGRAMS   *        TOTAL        KS       INT
 CPU TIMES  *        19.77     15.23      4.40
 REAL TIME  *        21.63 SEC
 DISK USED  *       426.89 MB      
 **********************************************************************************************************************************


 PROGRAM * Intrinsic Basis Bonding Analysis (IBBA)          Author: G. Knizia

 Molecular orbitals read from record     2100.2  Type=RKS/CANONICAL (state 1.1)
 Fock matrix read from record            2100.2  Type=RKS/TOTAL (state 1.1)
 Orbital energies read from record       2100.2  Type=RKS/CANONICAL (state 1.1)
 Density matrix read from record         2100.2  Type=RKS/CHARGE (state 1.1)

 Number of core orbitals:           5 (   5 )
 Number of closed-shell orbitals:  16 (  16 )

 Basis set MINAO-AUTO-PP generated.      Number of basis functions:   35 

 Polarized AO type:                A = (O Ot + (1-O)(1-Ot)) P12
 Orthogonalization method:         Symmetric (Loewdin)
 Localization functional:          L = sum[A,i] <i|n_A|i>^4 -> max

 Localization group 1:  21 orbitals, occupancy  2.000
 Iterative localization: IB/PM,    7 iter; Final gradient 0.72E-09

 Bond order analysis:       [THRPRINT= 0.020]

   CEN ATOM   CEN ATOM     WIBERG.BO      RENORM.BO
     1   C  -   2   C       0.994118       0.992464
     1   C  -   5   H       0.964989       0.986141
     1   C  -   6   H       0.960502       0.980516
     1   C  -   7   H       0.960502       0.980516

     2   C  -   1   C       0.994118       0.992464
     2   C  -   9   C       0.992959       0.973163
     2   C  -   8   C       0.992959       0.973163
     2   C  -   3   O       0.944228       0.952071

     3   O  -   2   C       0.944228       0.952071
     3   O  -   4   H       0.876242       0.974515
     3   O  -   8   C       0.030289       0.015533
     3   O  -   9   C       0.030289       0.015533

     4   H  -   3   O       0.876242       0.974515

     5   H  -   1   C       0.964989       0.986141

     6   H  -   1   C       0.960502       0.980516

     7   H  -   1   C       0.960502       0.980516

     8   C  -   2   C       0.992959       0.973163
     8   C  -  14   H       0.964260       0.981341
     8   C  -  10   H       0.961082       0.980307
     8   C  -  12   H       0.960396       0.979599
     8   C  -   3   O       0.030289       0.015533

     9   C  -   2   C       0.992959       0.973163
     9   C  -  15   H       0.964260       0.981341
     9   C  -  11   H       0.961082       0.980307
     9   C  -  13   H       0.960396       0.979599
     9   C  -   3   O       0.030289       0.015533

    10   H  -   8   C       0.961082       0.980307

    11   H  -   9   C       0.961082       0.980307

    12   H  -   8   C       0.960396       0.979599

    13   H  -   9   C       0.960396       0.979599

    14   H  -   8   C       0.964260       0.981341

    15   H  -   9   C       0.964260       0.981341


 Valency analysis:

   CEN ATOM   TOT.VALENCE
     1   C       3.943806
     2   C       3.935796
     3   O       1.953673
     4   H       0.897098
     5   H       0.984837
     6   H       0.982563
     7   H       0.982563
     8   C       3.946148
     9   C       3.946148
    10   H       0.982647
    11   H       0.982647
    12   H       0.984149
    13   H       0.984149
    14   H       0.986271
    15   H       0.986271

 Total charge composition:

   CEN ATOM         s          p       ELECTRONS ->P.CHARGE
     1   C       3.02241    3.36089      6.38330   -0.38330
     2   C       2.92206    2.82703      5.74909    0.25091
     3   O       3.63507    4.89549      8.53055   -0.53055
     4   H       0.67922                 0.67922    0.32078
     5   H       0.87686                 0.87686    0.12314
     6   H       0.86795                 0.86795    0.13205
     7   H       0.86795                 0.86795    0.13205
     8   C       3.02936    3.36798      6.39734   -0.39734
     9   C       3.02936    3.36798      6.39734   -0.39734
    10   H       0.86827                 0.86827    0.13173
    11   H       0.86827                 0.86827    0.13173
    12   H       0.87410                 0.87410    0.12590
    13   H       0.87410                 0.87410    0.12590
    14   H       0.88283                 0.88283    0.11717
    15   H       0.88283                 0.88283    0.11717

 Total charge composition, AO contributions:

   CEN ATOM SHL      SPHERICAL COMPONENTS
     1   C  1s       1.99124
     1   C  2s       1.03117
     1   C  2p       1.04327    1.15264    1.16499

     2   C  1s       1.99288
     2   C  2s       0.92918
     2   C  2p       1.01238    0.80058    1.01408

     3   O  1s       1.99716
     3   O  2s       1.63790
     3   O  2p       1.45890    1.48539    1.95120

     4   H  1s       0.67922

     5   H  1s       0.87686

     6   H  1s       0.86795

     7   H  1s       0.86795

     8   C  1s       1.99134
     8   C  2s       1.03801
     8   C  2p       1.13623    1.13733    1.09442

     9   C  1s       1.99134
     9   C  2s       1.03801
     9   C  2p       1.13623    1.13733    1.09442

    10   H  1s       0.86827

    11   H  1s       0.86827

    12   H  1s       0.87410

    13   H  1s       0.87410

    14   H  1s       0.88283

    15   H  1s       0.88283

 Summary of localized orbital composition:   [THRPRINT= 0.020]

   ORB  GRP  ORB.ENERGY      CENTERS/CHARGES
     1   1   -18.618016      O  3   2.000
     2   1    -9.881343      C  2   2.000
     3   1    -9.801659      C  9   2.000
     4   1    -9.801659      C  8   2.000
     5   1    -9.795819      C  1   2.000
     6   1    -0.676962      O  3   1.323   H  4   0.667
     7   1    -0.642313      O  3   1.272   C  2   0.710
     8   1    -0.506725      C  9   1.009   C  2   0.975
     9   1    -0.506725      C  8   1.009   C  2   0.975
    10   1    -0.506218      C  1   0.992   C  2   0.983   (other: 0.025)
    11   1    -0.467727      O  3   1.980   (other: 0.020)
    12   1    -0.443522      C  8   1.122   H 12   0.864
    13   1    -0.443522      C  9   1.122   H 13   0.864
    14   1    -0.442615      C  8   1.113   H 14   0.875
    15   1    -0.442615      C  9   1.113   H 15   0.875
    16   1    -0.439374      C  1   1.117   H  5   0.869
    17   1    -0.437829      C  8   1.130   H 10   0.860
    18   1    -0.437829      C  9   1.130   H 11   0.860
    19   1    -0.433016      C  1   1.129   H  7   0.860
    20   1    -0.433016      C  1   1.129   H  6   0.860
    21   1    -0.231831      O  3   1.951   (other: 0.049)

 Localized orbitals saved to record      2100.2  (orbital set 2)


 **********************************************************************************************************************************
 DATASETS  * FILE   NREC   LENGTH (MB)   RECORD NAMES
              1      20      122.15       500      610      700      900      950      970     1000      129      960     1100   
                                          VAR    BASINP    GEOM    SYMINP    ZMAT    AOBASIS   BASIS     P2S    ABASIS      S 
                                         1400     1410     1200     1210     1080     1600     1650     1300     1700     1800   
                                           T        V       H0       H01     AOSYM     SMH    MOLCAS    ERIS     OPER     GRID   

              2       5        3.42       700     1000      520     1800     2100   
                                         GEOM     BASIS   MCVARS    GRID      RKS  

 PROGRAMS   *        TOTAL      IBBA        KS       INT
 CPU TIMES  *        19.82      0.04     15.23      4.40
 REAL TIME  *        21.77 SEC
 DISK USED  *       426.89 MB      
 **********************************************************************************************************************************
 Molecular orbitals read from record     2100.2  Type=RKS/LOCAL(IBO)  
 Occupation numbers read from record     2100.2  Type=RKS/LOCAL(IBO)  
 Orbital energies read from record       2100.2  Type=RKS/LOCAL(IBO)  
 Redundancy group numbers read from rec  2100.2  Type=RKS/LOCAL(IBO)  

 IBBA/SVP energy=      0.000000000000

        KS-SCF  
   -233.37059744
 **********************************************************************************************************************************
 Molpro calculation terminated
