
 Primary working directories    : /tmp/sb13343
 Secondary working directories  : /tmp/sb13343
 Wavefunction directory         : /panfs/panasas01/chem/sb13343/wfu/
 Main file repository           : /tmp/sb13343/

 SHA1      : b4a5b34a9e711420743f49e6833241d17c61fb3c
 NAME      : 2099.9.b4a5b34
 ARCHNAME  : linux/x86_64_openmp
 FC        : /cm/shared/languages/GCC-6.1/bin/gfortran
 BLASLIB   : -lblas
 id        : simonbennie

 Nodes     nprocs
 node35-048    1

 Using customized tuning parameters: mindgm=1; mindgv=20; mindgc=4; mindgr=1; noblas=0; minvec=7
 default implementation of scratch files=df  

 memory,500,m
 geomtyp=xyz
 nosym
 noorient
 geometry={
 C          0.00000        0.00000        0.00000
 C          0.00000        0.00000        1.53307
 O          1.40344        0.00000        1.86307
 C          1.76314        0.00000        3.22887
 H         -1.02289        0.00000       -0.39176
 H          0.51995       -0.88625       -0.37815
 H          0.51995        0.88625       -0.37815
 H          2.85677        0.00000        3.25413
 H          1.40708       -0.89217        3.76475
 H          1.40708        0.89217        3.76475
 C         -0.69252       -1.26694        2.06222
 C         -0.69252        1.26694        2.06222
 H         -0.15366       -2.16088        1.72982
 H         -0.15366        2.16088        1.72982
 H         -1.72011       -1.32515        1.68649
 H         -1.72011        1.32515        1.68649
 H         -0.74365       -1.28188        3.15638
 H         -0.74365        1.28188        3.15638
 }
 basis={ default,svp }
 {uks,B,direct;wf,50,1,0}
 {ibba,bonds=1}

 Variables initialized (895), CPU time= 0.00 sec
 Commands  initialized (725), CPU time= 0.02 sec, 591 directives.
 Default parameters read. Elapsed time= 0.08 sec

 Checking input...
 Passed
1


                                         ***  PROGRAM SYSTEM MOLPRO  ***
                                       Copyright, TTI GmbH Stuttgart, 2015
                                    Version 2099.9 linked May 26 2017 16:03:21


 **********************************************************************************************************************************
 LABEL *                                                                                 
  64 bit serial version                                                                  DATE: 09-Jun-17          TIME: 01:49:17  
 **********************************************************************************************************************************

 SHA1:             b4a5b34a9e711420743f49e6833241d17c61fb3c
 **********************************************************************************************************************************
 SETTING GEOMTYP        =    XYZ

 Variable memory set to  500000000 words,  buffer space 

 ZSYMEL=NOSYM

 SETTING BASIS          =    SVP


 Recomputing integrals since basis changed


 Using spherical harmonics

 Library entry C      S def2-SVP             selected for orbital group  1
 Library entry C      P def2-SVP             selected for orbital group  1
 Library entry C      D def2-SVP             selected for orbital group  1
 Library entry O      S def2-SVP             selected for orbital group  2
 Library entry O      P def2-SVP             selected for orbital group  2
 Library entry O      D def2-SVP             selected for orbital group  2
 Library entry H      S def2-SVP             selected for orbital group  4
 Library entry H      P def2-SVP             selected for orbital group  4


 PROGRAM * SEWARD (Integral evaluation for generally contracted gaussian basis sets)     Author: Roland Lindh, 1990

 Geometry written to block  1 of record 700


 Point group  C1  



 ATOMIC COORDINATES

 NR  ATOM    CHARGE       X              Y              Z

   1  C       6.00    0.000000000    0.000000000    0.000000000
   2  C       6.00    0.000000000    0.000000000    2.897082430
   3  O       8.00    2.652117232    0.000000000    3.520692051
   4  C       6.00    3.331851719    0.000000000    6.101679992
   5  H       1.00   -1.932981956    0.000000000   -0.740319107
   6  H       1.00    0.982563098   -1.674769778   -0.714599934
   7  H       1.00    0.982563098    1.674769778   -0.714599934
   8  H       1.00    5.398512901    0.000000000    6.149414474
   9  H       1.00    2.658995835   -1.685956957    7.114346427
  10  H       1.00    2.658995835    1.685956957    7.114346427
  11  C       6.00   -1.308673136   -2.394169616    3.897031009
  12  C       6.00   -1.308673136    2.394169616    3.897031009
  13  H       1.00   -0.290375316   -4.083471388    3.268886045
  14  H       1.00   -0.290375316    4.083471388    3.268886045
  15  H       1.00   -3.250536804   -2.504170574    3.187004212
  16  H       1.00   -3.250536804    2.504170574    3.187004212
  17  H       1.00   -1.405294833   -2.422402125    5.964693745
  18  H       1.00   -1.405294833    2.422402125    5.964693745

 Bond lengths in Bohr (Angstrom)

 1-2  2.897082430  1-5  2.069901355  1-6  2.069042560  1-7  2.069042560  2-3  2.724447609
     ( 1.533070000)     ( 1.095344626)     ( 1.094890171)     ( 1.094890171)     ( 1.441715587)

  2-11  2.905954351   2-12  2.905954351   3- 4  2.668995640   4- 8  2.067212379   4- 9  2.078624355
       ( 1.537764818)       ( 1.537764818)       ( 1.412371669)       ( 1.093921681)       ( 1.099960639)

  4-10  2.078624355  11-13  2.070081404  11-15  2.070524757  11-17  2.070111596  12-14  2.070081404
       ( 1.099960639)       ( 1.095439904)       ( 1.095674516)       ( 1.095455880)       ( 1.095439904)

 12-16  2.070524757  12-18  2.070111596
       ( 1.095674516)       ( 1.095455880)

 Bond angles

  1- 2- 3  103.23196371   1- 2-11  110.12706952   1- 2-12  110.12706952   2- 1- 5  110.95650426

  2- 1- 6  110.20481748   2- 1- 7  110.20481748   2- 3- 4  117.98647004   2-11-13  110.26679927

  2-11-15  110.37287188   2-11-17  112.08316935   2-12-14  110.26679927   2-12-16  110.37287188

  2-12-18  112.08316935   3- 2-11  111.07703285   3- 2-12  111.07703285   3- 4- 8  106.07765410

  3- 4- 9  112.87219182   3- 4-10  112.87219182   5- 1- 6  108.65976572   5- 1- 7  108.65976572

  6- 1- 7  108.08288210   8- 4- 9  108.20190897   8- 4-10  108.20190897   9- 4-10  108.40564999

 11- 2-12  110.95103964  13-11-15  108.29648994  13-11-17  108.35544687  14-12-16  108.29648994

 14-12-18  108.35544687  15-11-17  107.33851825  16-12-18  107.33851825

 NUCLEAR CHARGE:                   50
 NUMBER OF PRIMITIVE AOS:         234
 NUMBER OF SYMMETRY AOS:          228
 NUMBER OF CONTRACTIONS:          144   ( 144A   )
 NUMBER OF CORE ORBITALS:           6   (   6A   )
 NUMBER OF VALENCE ORBITALS:       36   (  36A   )


 NUCLEAR REPULSION ENERGY  270.15500869


 Eigenvalues of metric

         1 0.176E-02 0.508E-02 0.513E-02 0.102E-01 0.124E-01 0.215E-01 0.221E-01 0.252E-01


 Contracted 2-electron integrals neglected if value below      1.0D-11
 AO integral compression algorithm  1   Integral accuracy      1.0D-11

     186.384 MB (compressed) written to integral file ( 41.3%)


 NUMBER OF SORTED TWO-ELECTRON INTEGRALS:   54502020.     BUFFER LENGTH:  32768
 NUMBER OF SEGMENTS:   4  SEGMENT LENGTH:   15999503      RECORD LENGTH: 524288

 Memory used in sort:      16.56 MW

 SORT1 READ    56333432. AND WROTE    45703433. INTEGRALS IN    132 RECORDS. CPU TIME:     0.72 SEC, REAL TIME:     1.44 SEC
 SORT2 READ    45703433. AND WROTE    54502020. INTEGRALS IN    711 RECORDS. CPU TIME:     1.06 SEC, REAL TIME:     1.43 SEC

 FILE SIZES:   FILE 1:   217.4 MBYTE,  FILE 4:   553.7 MBYTE,   TOTAL:    771.1 MBYTE

 OPERATOR DM      FOR CENTER  0  COORDINATES:    0.000000    0.000000    0.000000


 **********************************************************************************************************************************
 DATASETS  * FILE   NREC   LENGTH (MB)   RECORD NAMES
              1      19      194.45       500      610      700      900      950      970     1000      129      960     1100   
                                          VAR    BASINP    GEOM    SYMINP    ZMAT    AOBASIS   BASIS     P2S    ABASIS      S 
                                         1400     1410     1200     1210     1080     1600     1650     1300     1700   
                                           T        V       H0       H01     AOSYM     SMH    MOLCAS    ERIS     OPER   

 PROGRAMS   *        TOTAL       INT
 CPU TIMES  *         7.13      6.99
 REAL TIME  *        10.31 SEC
 DISK USED  *       771.70 MB      
 **********************************************************************************************************************************

 Density functional group B=B88
 Functional: B88(Automatically generated (new) B88)                            Gradient terms: 1
 Use grid at  1800.2

 Functional: B88                       Factor:  1.0000

 Generated new metagrid on record  1800.2 with target accuracy 1.0D-06 and 66012 points in CPU time    2.0
 Computed new grid on record 1800.1 in CPU time    2.2
  118710 words reserved for DFT integration

 PROGRAM * UKS-SCF (Unrestricted Kohn-Sham)     Authors: W. Meyer, H.-J. Werner, P.J. Knowles, 1993

 NUMBER OF ELECTRONS:      25+   25-    SPACE SYMMETRY=1    SPIN SYMMETRY: Singlet 
 CONVERGENCE THRESHOLDS:    1.00E-05 (Density)    1.00E-06 (Energy)
 MAX. NUMBER OF ITERATIONS:       60
 INTERPOLATION TYPE:            DIIS
 INTERPOLATION STEPS:              2 (START)      1 (STEP)
 LEVEL SHIFTS:                 -0.20 (ALPHA)  -0.20 (BETA) 



 Use fine grid record 1800.2 for energy threshold  1.0D-06
 Orbital guess generated from atomic densities. Full valence occupancy:   25

 Molecular orbital dump at record        2200.2

 Initial alpha occupation  25
 Initial beta  occupation  25

 ITERATION    DDIFF          GRAD             ENERGY        2-EL.EN.            DIPOLE MOMENTS         DIIS
    1      0.000D+00      0.000D+00      -270.68174561    820.208986   -0.63486    0.00000    0.60571    0
    2      0.122D-01      0.508D-02      -270.92601085    793.595774   -0.27938    0.00000    0.19408    1
    3      0.395D-02      0.252D-02      -270.98263359    801.124506   -0.35282    0.00000    0.32018    2
    4      0.101D-02      0.318D-03      -270.98375486    800.636852   -0.30966    0.00000    0.28707    3
    5      0.564D-03      0.186D-03      -270.98417539    800.627069   -0.31995    0.00000    0.29338    4
    6      0.401D-03      0.456D-04      -270.98424013    800.571295   -0.31138    0.00000    0.28876    5
    7      0.666D-04      0.130D-04      -270.98424315    800.564525   -0.31411    0.00000    0.28950    6
    8      0.281D-04      0.612D-05      -270.98424377    800.567193   -0.31367    0.00000    0.28969    7
    9      0.896D-05      0.140D-05      -270.98424381    800.565215   -0.31347    0.00000    0.28946    7
   10      0.247D-05      0.483D-06      -270.98424382    800.566526   -0.31360    0.00000    0.28957    7

 Final alpha occupancy:  25
 Final beta  occupancy:  25

 !UKS STATE 1.1 Energy               -270.984243817770
 Nuclear energy                       270.15500869
 One-electron energy                 -903.05117282
 Two-electron energy                  400.28326308
 Density functional                   -38.37134278     B88=-38.37134278
 Virial quotient                       -1.00512893
 !UKS STATE 1.1 Dipole moment          -0.31359655     0.00000000     0.28957121
 Dipole moment /Debye                  -0.79703073     0.00000000     0.73596839

 Orbital energies for positive spin:

         1.1          2.1          3.1          4.1          5.1          6.1          7.1          8.1          9.1         10.1
    -18.731157    -9.934550    -9.924160    -9.878336    -9.878325    -9.873568    -0.877691    -0.674119    -0.582089    -0.577160

        11.1         12.1         13.1         14.1         15.1         16.1         17.1         18.1         19.1         20.1
     -0.556640    -0.447690    -0.393190    -0.371367    -0.367352    -0.343994    -0.327539    -0.314960    -0.300002    -0.292014

        21.1         22.1         23.1         24.1         25.1         26.1         27.1
     -0.284660    -0.262882    -0.262775    -0.212011    -0.164723     0.058228     0.087029

 Orbital energies for negative spin:

         1.1          2.1          3.1          4.1          5.1          6.1          7.1          8.1          9.1         10.1
    -18.731157    -9.934550    -9.924160    -9.878336    -9.878325    -9.873568    -0.877691    -0.674119    -0.582089    -0.577160

        11.1         12.1         13.1         14.1         15.1         16.1         17.1         18.1         19.1         20.1
     -0.556640    -0.447690    -0.393190    -0.371367    -0.367352    -0.343994    -0.327539    -0.314960    -0.300002    -0.292014

        21.1         22.1         23.1         24.1         25.1         26.1         27.1
     -0.284660    -0.262882    -0.262775    -0.212011    -0.164723     0.058228     0.087029

 HOMO     25.1    -0.164723 =      -4.4823eV
 LUMO     26.1     0.058228 =       1.5845eV
 LUMO-HOMO         0.222951 =       6.0668eV

 EXPECTATION VALUE OF S**2:            -0.00000000

 Natural orbitals saved to record    2200.2 (Orbital set 3)

 Orbital spaces for UNO-CAS (Min. occupation: 0.020  Max. occupation: 1.980):

 Closed:       25
 Active:        0


 **********************************************************************************************************************************
 DATASETS  * FILE   NREC   LENGTH (MB)   RECORD NAMES
              1      20      196.57       500      610      700      900      950      970     1000      129      960     1100   
                                          VAR    BASINP    GEOM    SYMINP    ZMAT    AOBASIS   BASIS     P2S    ABASIS      S 
                                         1400     1410     1200     1210     1080     1600     1650     1300     1700     1800   
                                           T        V       H0       H01     AOSYM     SMH    MOLCAS    ERIS     OPER     GRID   

              2       5        3.91       700     1000      520     1800     2200   
                                         GEOM     BASIS   MCVARS    GRID      UKS  

 PROGRAMS   *        TOTAL       UKS       INT
 CPU TIMES  *        41.06     33.92      6.99
 REAL TIME  *        46.59 SEC
 DISK USED  *       771.70 MB      
 **********************************************************************************************************************************


 PROGRAM * Intrinsic Basis Bonding Analysis (IBBA)          Author: G. Knizia

 Molecular orbitals read from record     2200.2  Type=UKS/ALPHA (state 1.1)
 Fock matrix read from record            2200.2  Type=UKS/TOTAL (state 1.1)
 Orbital energies read from record       2200.2  Type=UKS/ALPHA (state 1.1)
 Density matrix read from record         2200.2  Type=UKS/CHARGE (state 1.1)

 Number of core orbitals:           6 (   6 )
 Number of closed-shell orbitals:  19 (  19 )

 Basis set MINAO-AUTO-PP generated.      Number of basis functions:   42 

 Polarized AO type:                A = (O Ot + (1-O)(1-Ot)) P12
 Orthogonalization method:         Symmetric (Loewdin)
 Localization functional:          L = sum[A,i] <i|n_A|i>^4 -> max

 Localization group 1:  25 orbitals, occupancy  2.000
 Iterative localization: IB/PM,    7 iter; Final gradient 0.25E-08

 Bond order analysis:       [THRPRINT= 0.020]

   CEN ATOM   CEN ATOM     WIBERG.BO      RENORM.BO
     1   C  -   2   C       0.995716       0.995702
     1   C  -   5   H       0.966994       0.984347
     1   C  -   7   H       0.963051       0.979826
     1   C  -   6   H       0.963051       0.979826

     2   C  -   1   C       0.995716       0.995702
     2   C  -  12   C       0.991076       0.971405
     2   C  -  11   C       0.991076       0.971405
     2   C  -   3   O       0.929569       0.937172

     3   O  -   4   C       0.998335       1.017986
     3   O  -   2   C       0.929569       0.937172
     3   O  -   9   H       0.036775       0.021472
     3   O  -  10   H       0.036775       0.021472
     3   O  -  12   C       0.027828       0.014498
     3   O  -  11   C       0.027828       0.014498

     4   C  -   3   O       0.998335       1.017986
     4   C  -   8   H       0.960244       0.976610
     4   C  -   9   H       0.949040       0.930433
     4   C  -  10   H       0.949040       0.930433

     5   H  -   1   C       0.966994       0.984347

     6   H  -   1   C       0.963051       0.979826

     7   H  -   1   C       0.963051       0.979826

     8   H  -   4   C       0.960244       0.976610

     9   H  -   4   C       0.949040       0.930433
     9   H  -   3   O       0.036775       0.021472

    10   H  -   4   C       0.949040       0.930433
    10   H  -   3   O       0.036775       0.021472

    11   C  -   2   C       0.991076       0.971405
    11   C  -  17   H       0.965028       0.979828
    11   C  -  15   H       0.963604       0.984781
    11   C  -  13   H       0.963423       0.979839
    11   C  -   3   O       0.027828       0.014498

    12   C  -   2   C       0.991076       0.971405
    12   C  -  18   H       0.965028       0.979828
    12   C  -  16   H       0.963604       0.984781
    12   C  -  14   H       0.963423       0.979839
    12   C  -   3   O       0.027828       0.014498

    13   H  -  11   C       0.963423       0.979839

    14   H  -  12   C       0.963423       0.979839

    15   H  -  11   C       0.963604       0.984781

    16   H  -  12   C       0.963604       0.984781

    17   H  -  11   C       0.965028       0.979828

    18   H  -  12   C       0.965028       0.979828


 Valency analysis:

   CEN ATOM   TOT.VALENCE
     1   C       3.951764
     2   C       3.936405
     3   O       2.131165
     4   C       3.881911
     5   H       0.987429
     6   H       0.985114
     7   H       0.985114
     8   H       0.982501
     9   H       0.990816
    10   H       0.990816
    11   C       3.951438
    12   C       3.951438
    13   H       0.985350
    14   H       0.985350
    15   H       0.985713
    16   H       0.985713
    17   H       0.987127
    18   H       0.987127

 Total charge composition:

   CEN ATOM         s          p       ELECTRONS ->P.CHARGE
     1   C       3.02094    3.33290      6.35385   -0.35385
     2   C       2.92647    2.82601      5.75248    0.24752
     3   O       3.60263    4.77837      8.38099   -0.38099
     4   C       3.00751    3.14542      6.15292   -0.15292
     5   H       0.88788                 0.88788    0.11212
     6   H       0.87799                 0.87799    0.12201
     7   H       0.87799                 0.87799    0.12201
     8   H       0.86772                 0.86772    0.13228
     9   H       0.90417                 0.90417    0.09583
    10   H       0.90417                 0.90417    0.09583
    11   C       3.02102    3.35293      6.37394   -0.37394
    12   C       3.02102    3.35293      6.37394   -0.37394
    13   H       0.87896                 0.87896    0.12104
    14   H       0.87896                 0.87896    0.12104
    15   H       0.88047                 0.88047    0.11953
    16   H       0.88047                 0.88047    0.11953
    17   H       0.88654                 0.88654    0.11346
    18   H       0.88654                 0.88654    0.11346

 Total charge composition, AO contributions:

   CEN ATOM SHL      SPHERICAL COMPONENTS
     1   C  1s       1.99125
     1   C  2s       1.02969
     1   C  2p       1.14151    1.15453    1.03686

     2   C  1s       1.99290
     2   C  2s       0.93357
     2   C  2p       0.79762    1.01474    1.01366

     3   O  1s       1.99731
     3   O  2s       1.60532
     3   O  2p       1.43161    1.90200    1.44476

     4   C  1s       1.99189
     4   C  2s       1.01562
     4   C  2p       1.14354    1.15449    0.84739

     5   H  1s       0.88788

     6   H  1s       0.87799

     7   H  1s       0.87799

     8   H  1s       0.86772

     9   H  1s       0.90417

    10   H  1s       0.90417

    11   C  1s       1.99130
    11   C  2s       1.02972
    11   C  2p       1.12909    1.08764    1.13619

    12   C  1s       1.99130
    12   C  2s       1.02972
    12   C  2p       1.12909    1.08764    1.13619

    13   H  1s       0.87896

    14   H  1s       0.87896

    15   H  1s       0.88047

    16   H  1s       0.88047

    17   H  1s       0.88654

    18   H  1s       0.88654

 Summary of localized orbital composition:   [THRPRINT= 0.020]

   ORB  GRP  ORB.ENERGY      CENTERS/CHARGES
     1   1   -18.593252      O  3   2.000
     2   1    -9.846062      C  2   2.000
     3   1    -9.818495      C  4   2.000
     4   1    -9.767834      C 12   2.000
     5   1    -9.767834      C 11   2.000
     6   1    -9.762410      C  1   2.000
     7   1    -0.647277      O  3   1.245   C  4   0.746
     8   1    -0.621094      O  3   1.271   C  2   0.704   (other: 0.026)
     9   1    -0.475012      C 11   1.008   C  2   0.975
    10   1    -0.475012      C 12   1.008   C  2   0.975
    11   1    -0.472230      C  1   0.991   C  2   0.985   (other: 0.024)
    12   1    -0.429315      O  3   1.957   (other: 0.043)
    13   1    -0.426114      C  4   1.116   H 10   0.882
    14   1    -0.426114      C  4   1.116   H  9   0.882
    15   1    -0.424036      C  4   1.131   H  8   0.861
    16   1    -0.412626      C 11   1.113   H 15   0.872
    17   1    -0.412626      C 12   1.113   H 16   0.872
    18   1    -0.411028      C 12   1.111   H 18   0.878
    19   1    -0.411028      C 11   1.111   H 17   0.878
    20   1    -0.408780      C  1   1.107   H  5   0.880
    21   1    -0.407380      C 11   1.119   H 13   0.871
    22   1    -0.407380      C 12   1.119   H 14   0.871
    23   1    -0.402320      C  1   1.119   H  7   0.870
    24   1    -0.402320      C  1   1.119   H  6   0.870
    25   1    -0.205150      O  3   1.902   C  4   0.021   C  2   0.020   (other: 0.057)

 Localized orbitals saved to record      2200.2  (orbital set 4)


 **********************************************************************************************************************************
 DATASETS  * FILE   NREC   LENGTH (MB)   RECORD NAMES
              1      20      196.57       500      610      700      900      950      970     1000      129      960     1100   
                                          VAR    BASINP    GEOM    SYMINP    ZMAT    AOBASIS   BASIS     P2S    ABASIS      S 
                                         1400     1410     1200     1210     1080     1600     1650     1300     1700     1800   
                                           T        V       H0       H01     AOSYM     SMH    MOLCAS    ERIS     OPER     GRID   

              2       5        4.08       700     1000      520     1800     2200   
                                         GEOM     BASIS   MCVARS    GRID      UKS  

 PROGRAMS   *        TOTAL      IBBA       UKS       INT
 CPU TIMES  *        41.11      0.05     33.92      6.99
 REAL TIME  *        46.82 SEC
 DISK USED  *       771.70 MB      
 **********************************************************************************************************************************
 Molecular orbitals read from record     2200.2  Type=UKS/LOCAL(IBO)  
 Occupation numbers read from record     2200.2  Type=UKS/LOCAL(IBO)  
 Orbital energies read from record       2200.2  Type=UKS/LOCAL(IBO)  
 Redundancy group numbers read from rec  2200.2  Type=UKS/BETA (state 1.1)

 IBBA/SVP energy=      0.000000000000

        UKS-SCF 
   -270.98424382
 **********************************************************************************************************************************
 Molpro calculation terminated
