
 Primary working directories    : /tmp/sb13343
 Secondary working directories  : /tmp/sb13343
 Wavefunction directory         : /panfs/panasas01/chem/sb13343/wfu/
 Main file repository           : /tmp/sb13343/

 SHA1      : b4a5b34a9e711420743f49e6833241d17c61fb3c
 NAME      : 2099.9.b4a5b34
 ARCHNAME  : linux/x86_64_openmp
 FC        : /cm/shared/languages/GCC-6.1/bin/gfortran
 BLASLIB   : -lblas
 id        : simonbennie

 Nodes     nprocs
 node32-028    1

 Using customized tuning parameters: mindgm=1; mindgv=20; mindgc=4; mindgr=1; noblas=0; minvec=7
 default implementation of scratch files=df  

 memory,500,m
 geomtyp=xyz
 nosym
 noorient
 geometry={
 C         -1.53233        0.02247        0.00000
 C         -0.00192        0.01421        0.00000
 O          0.37239        1.40356        0.00000
 H          1.34248        1.44036        0.00000
 H         -1.92991       -0.99819        0.00000
 H         -1.90797        0.54382       -0.88653
 H         -1.90797        0.54382        0.88653
 C          0.54303       -0.66466       -1.26580
 C          0.54303       -0.66466        1.26580
 H          0.17836       -0.14752       -2.15943
 H          0.17836       -0.14752        2.15943
 H          0.23752       -1.71600       -1.32280
 H          0.23752       -1.71600        1.32280
 H          1.64084       -0.63767       -1.28032
 H          1.64084       -0.63767        1.28032
 }
 basis={ default,svp }
 {uks,PBE0,direct;wf,42,1,0}
 {ibba,bonds=1}

 Variables initialized (895), CPU time= 0.01 sec
 Commands  initialized (725), CPU time= 0.01 sec, 591 directives.
 Default parameters read. Elapsed time= 0.08 sec

 Checking input...
 Passed
1


                                         ***  PROGRAM SYSTEM MOLPRO  ***
                                       Copyright, TTI GmbH Stuttgart, 2015
                                    Version 2099.9 linked May 26 2017 16:03:21


 **********************************************************************************************************************************
 LABEL *                                                                                 
  64 bit serial version                                                                  DATE: 09-Jun-17          TIME: 03:41:54  
 **********************************************************************************************************************************

 SHA1:             b4a5b34a9e711420743f49e6833241d17c61fb3c
 **********************************************************************************************************************************
 SETTING GEOMTYP        =    XYZ

 Variable memory set to  500000000 words,  buffer space 

 ZSYMEL=NOSYM

 SETTING BASIS          =    SVP


 Recomputing integrals since basis changed


 Using spherical harmonics

 Library entry C      S def2-SVP             selected for orbital group  1
 Library entry C      P def2-SVP             selected for orbital group  1
 Library entry C      D def2-SVP             selected for orbital group  1
 Library entry O      S def2-SVP             selected for orbital group  2
 Library entry O      P def2-SVP             selected for orbital group  2
 Library entry O      D def2-SVP             selected for orbital group  2
 Library entry H      S def2-SVP             selected for orbital group  3
 Library entry H      P def2-SVP             selected for orbital group  3


 PROGRAM * SEWARD (Integral evaluation for generally contracted gaussian basis sets)     Author: Roland Lindh, 1990

 Geometry written to block  1 of record 700


 Point group  C1  



 ATOMIC COORDINATES

 NR  ATOM    CHARGE       X              Y              Z

   1  C       6.00   -2.895684032    0.042462146    0.000000000
   2  C       6.00   -0.003628274    0.026853008    0.000000000
   3  O       8.00    0.703715112    2.652343999    0.000000000
   4  H       1.00    2.536919528    2.721885921    0.000000000
   5  H       1.00   -3.647001345   -1.886305720    0.000000000
   6  H       1.00   -3.605540754    1.027670861   -1.675298901
   7  H       1.00   -3.605540754    1.027670861    1.675298901
   8  C       6.00    1.026177977   -1.256025366   -2.392015328
   9  C       6.00    1.026177977   -1.256025366    2.392015328
  10  H       1.00    0.337051552   -0.278772398   -4.080731285
  11  H       1.00    0.337051552   -0.278772398    4.080731285
  12  H       1.00    0.448847749   -3.242770030   -2.499729718
  13  H       1.00    0.448847749   -3.242770030    2.499729718
  14  H       1.00    3.100738214   -1.205021658   -2.419454152
  15  H       1.00    3.100738214   -1.205021658    2.419454152

 Bond lengths in Bohr (Angstrom)

 1-2  2.892097881  1-5  2.069933136  1-6  2.069096224  1-7  2.069096224  2-3  2.719106031
     ( 1.530432290)     ( 1.095361444)     ( 1.094918569)     ( 1.094918569)     ( 1.438888946)

  2- 8  2.903104402   2- 9  2.903104402   3- 4  1.834522965   8-10  2.069222119   8-12  2.071730422
       ( 1.536256691)       ( 1.536256691)       ( 0.970787746)       ( 1.094985190)       ( 1.096312526)

  8-14  2.075368508   9-11  2.069222119   9-13  2.071730422   9-15  2.075368508
       ( 1.098237719)       ( 1.094985190)       ( 1.096312526)       ( 1.098237719)

 Bond angles

  1-2-3  104.76902697   1-2-8  110.92255387   1-2-9  110.92255387   2-1-5  110.97328220

  2- 1- 6  110.22090701   2- 1- 7  110.22090701   2- 3- 4  107.25071562   2- 8-10  110.21836376

  2- 8-12  111.57747468   2- 8-14  110.77023896   2- 9-11  110.21836376   2- 9-13  111.57747468

  2- 9-15  110.77023896   3- 2- 8  109.53648747   3- 2- 9  109.53648747   5- 1- 6  108.61190457

  5- 1- 7  108.61190457   6- 1- 7  108.12870271   8- 2- 9  110.96453384  10- 8-12  108.52192632

 10- 8-14  108.08997829  11- 9-13  108.52192632  11- 9-15  108.08997829  12- 8-14  107.54424578

 13- 9-15  107.54424578

 NUCLEAR CHARGE:                   42
 NUMBER OF PRIMITIVE AOS:         195
 NUMBER OF SYMMETRY AOS:          190
 NUMBER OF CONTRACTIONS:          120   ( 120A   )
 NUMBER OF CORE ORBITALS:           5   (   5A   )
 NUMBER OF VALENCE ORBITALS:       30   (  30A   )


 NUCLEAR REPULSION ENERGY  198.77359127


 Eigenvalues of metric

         1 0.176E-02 0.546E-02 0.548E-02 0.123E-01 0.248E-01 0.256E-01 0.256E-01 0.275E-01


 Contracted 2-electron integrals neglected if value below      1.0D-11
 AO integral compression algorithm  1   Integral accuracy      1.0D-11

     101.974 MB (compressed) written to integral file ( 44.9%)


 NUMBER OF SORTED TWO-ELECTRON INTEGRALS:   26357430.     BUFFER LENGTH:  32768
 NUMBER OF SEGMENTS:   2  SEGMENT LENGTH:   15997996      RECORD LENGTH: 524288

 Memory used in sort:      16.56 MW

 SORT1 READ    28411733. AND WROTE    24096425. INTEGRALS IN     70 RECORDS. CPU TIME:     0.33 SEC, REAL TIME:     0.68 SEC
 SORT2 READ    24096425. AND WROTE    26357430. INTEGRALS IN    389 RECORDS. CPU TIME:     0.63 SEC, REAL TIME:     4.85 SEC

 FILE SIZES:   FILE 1:   132.7 MBYTE,  FILE 4:   293.6 MBYTE,   TOTAL:    426.4 MBYTE

 OPERATOR DM      FOR CENTER  0  COORDINATES:    0.000000    0.000000    0.000000


 **********************************************************************************************************************************
 DATASETS  * FILE   NREC   LENGTH (MB)   RECORD NAMES
              1      19      120.44       500      610      700      900      950      970     1000      129      960     1100   
                                          VAR    BASINP    GEOM    SYMINP    ZMAT    AOBASIS   BASIS     P2S    ABASIS      S 
                                         1400     1410     1200     1210     1080     1600     1650     1300     1700   
                                           T        V       H0       H01     AOSYM     SMH    MOLCAS    ERIS     OPER   

 PROGRAMS   *        TOTAL       INT
 CPU TIMES  *         4.00      3.86
 REAL TIME  *         9.22 SEC
 DISK USED  *       426.89 MB      
 **********************************************************************************************************************************

 Density functional group PBE0=PBEX+PBEC
 Functional: PBEX(Automatically generated (new) PBEX)                          Gradient terms: 1
 Functional: PBEC(Automatically generated (new) PBEC)                          Gradient terms: 1
 Use grid at  1800.2


 Exact exchange will be calculated, factor:  0.2500

 Functional: PBEX                      Factor:  0.7500
 Functional: PBEC                      Factor:  1.0000

 Generated new metagrid on record  1800.2 with target accuracy 1.0D-06 and 53396 points in CPU time    1.6
 Computed new grid on record 1800.1 in CPU time    1.8
   99539 words reserved for DFT integration

 PROGRAM * UKS-SCF (Unrestricted Kohn-Sham)     Authors: W. Meyer, H.-J. Werner, P.J. Knowles, 1993

 NUMBER OF ELECTRONS:      21+   21-    SPACE SYMMETRY=1    SPIN SYMMETRY: Singlet 
 CONVERGENCE THRESHOLDS:    1.00E-05 (Density)    1.00E-06 (Energy)
 MAX. NUMBER OF ITERATIONS:       60
 INTERPOLATION TYPE:            DIIS
 INTERPOLATION STEPS:              2 (START)      1 (STEP)
 LEVEL SHIFTS:                 -0.20 (ALPHA)  -0.20 (BETA) 



 Use fine grid record 1800.2 for energy threshold  1.0D-06
 Orbital guess generated from atomic densities. Full valence occupancy:   21

 Molecular orbital dump at record        2200.2

 Initial alpha occupation  21
 Initial beta  occupation  21

 ITERATION    DDIFF          GRAD             ENERGY        2-EL.EN.            DIPOLE MOMENTS         DIIS
    1      0.000D+00      0.000D+00      -233.05414908    618.292016    0.70503   -0.83617    0.00000    0
    2      0.982D-02      0.478D-02      -233.20400597    602.001456    0.31659   -0.45417    0.00000    1
    3      0.291D-02      0.201D-02      -233.22539210    605.774350    0.39472   -0.53274    0.00000    2
    4      0.795D-03      0.316D-03      -233.22628211    605.609440    0.38101   -0.48411    0.00000    3
    5      0.607D-03      0.146D-03      -233.22658270    605.534531    0.37536   -0.47931    0.00000    4
    6      0.283D-03      0.364D-04      -233.22661398    605.519036    0.37346   -0.47428    0.00000    5
    7      0.444D-04      0.863D-05      -233.22661502    605.503391    0.37267   -0.47416    0.00000    6
    8      0.139D-04      0.420D-05      -233.22661521    605.508146    0.37268   -0.47443    0.00000    7
    9      0.496D-05      0.759D-06      -233.22661522    605.508139    0.37264   -0.47432    0.00000    6
   10      0.113D-05      0.213D-06      -233.22661522    605.507751    0.37261   -0.47435    0.00000    7

 Final alpha occupancy:  21
 Final beta  occupancy:  21

 !UKS STATE 1.1 Energy               -233.226615224965
 Nuclear energy                       198.77359127
 One-electron energy                 -709.14312481
 Two-electron energy                  302.75387561
 Density functional                   -25.61095730     PBEX=-32.30978453 PBEC= -1.37861890
 Virial quotient                       -1.01064816
 !UKS STATE 1.1 Dipole moment           0.37260982    -0.47435138     0.00000000
 Dipole moment /Debye                   0.94701767    -1.20560198     0.00000000

 Orbital energies for positive spin:

         1.1          2.1          3.1          4.1          5.1          6.1          7.1          8.1          9.1         10.1
    -19.195404   -10.286024   -10.222972   -10.222954   -10.217186    -1.024072    -0.799833    -0.703173    -0.701915    -0.577352

        11.1         12.1         13.1         14.1         15.1         16.1         17.1         18.1         19.1         20.1
     -0.499644    -0.462545    -0.460601    -0.420670    -0.407132    -0.388040    -0.375576    -0.362798    -0.357127    -0.326439

        21.1         22.1         23.1
     -0.276351     0.052054     0.102641

 Orbital energies for negative spin:

         1.1          2.1          3.1          4.1          5.1          6.1          7.1          8.1          9.1         10.1
    -19.195404   -10.286024   -10.222972   -10.222954   -10.217186    -1.024072    -0.799833    -0.703173    -0.701915    -0.577352

        11.1         12.1         13.1         14.1         15.1         16.1         17.1         18.1         19.1         20.1
     -0.499644    -0.462545    -0.460601    -0.420670    -0.407132    -0.388040    -0.375576    -0.362798    -0.357127    -0.326439

        21.1         22.1         23.1
     -0.276351     0.052054     0.102641

 HOMO     21.1    -0.276351 =      -7.5199eV
 LUMO     22.1     0.052054 =       1.4164eV
 LUMO-HOMO         0.328404 =       8.9363eV

 EXPECTATION VALUE OF S**2:            -0.00000000

 Natural orbitals saved to record    2200.2 (Orbital set 3)

 Orbital spaces for UNO-CAS (Min. occupation: 0.020  Max. occupation: 1.980):

 Closed:       21
 Active:        0


 **********************************************************************************************************************************
 DATASETS  * FILE   NREC   LENGTH (MB)   RECORD NAMES
              1      20      122.15       500      610      700      900      950      970     1000      129      960     1100   
                                          VAR    BASINP    GEOM    SYMINP    ZMAT    AOBASIS   BASIS     P2S    ABASIS      S 
                                         1400     1410     1200     1210     1080     1600     1650     1300     1700     1800   
                                           T        V       H0       H01     AOSYM     SMH    MOLCAS    ERIS     OPER     GRID   

              2       5        3.59       700     1000      520     1800     2200   
                                         GEOM     BASIS   MCVARS    GRID      UKS  

 PROGRAMS   *        TOTAL       UKS       INT
 CPU TIMES  *        28.35     24.35      3.86
 REAL TIME  *        33.83 SEC
 DISK USED  *       426.89 MB      
 **********************************************************************************************************************************


 PROGRAM * Intrinsic Basis Bonding Analysis (IBBA)          Author: G. Knizia

 Molecular orbitals read from record     2200.2  Type=UKS/ALPHA (state 1.1)
 Fock matrix read from record            2200.2  Type=UKS/TOTAL (state 1.1)
 Orbital energies read from record       2200.2  Type=UKS/ALPHA (state 1.1)
 Density matrix read from record         2200.2  Type=UKS/CHARGE (state 1.1)

 Number of core orbitals:           5 (   5 )
 Number of closed-shell orbitals:  16 (  16 )

 Basis set MINAO-AUTO-PP generated.      Number of basis functions:   35 

 Polarized AO type:                A = (O Ot + (1-O)(1-Ot)) P12
 Orthogonalization method:         Symmetric (Loewdin)
 Localization functional:          L = sum[A,i] <i|n_A|i>^4 -> max

 Localization group 1:  21 orbitals, occupancy  2.000
 Iterative localization: IB/PM,    7 iter; Final gradient 0.53E-08

 Bond order analysis:       [THRPRINT= 0.020]

   CEN ATOM   CEN ATOM     WIBERG.BO      RENORM.BO
     1   C  -   2   C       0.994923       0.992117
     1   C  -   5   H       0.964249       0.987376
     1   C  -   6   H       0.959408       0.982311
     1   C  -   7   H       0.959408       0.982311

     2   C  -   1   C       0.994923       0.992117
     2   C  -   9   C       0.993885       0.974825
     2   C  -   8   C       0.993885       0.974825
     2   C  -   3   O       0.941633       0.952851

     3   O  -   2   C       0.941633       0.952851
     3   O  -   4   H       0.871245       0.977916
     3   O  -   9   C       0.027159       0.013931
     3   O  -   8   C       0.027159       0.013931

     4   H  -   3   O       0.871245       0.977916

     5   H  -   1   C       0.964249       0.987376

     6   H  -   1   C       0.959408       0.982311

     7   H  -   1   C       0.959408       0.982311

     8   C  -   2   C       0.993885       0.974825
     8   C  -  14   H       0.963612       0.982845
     8   C  -  12   H       0.960229       0.982558
     8   C  -  10   H       0.959903       0.982132
     8   C  -   3   O       0.027159       0.013931

     9   C  -   2   C       0.993885       0.974825
     9   C  -  15   H       0.963612       0.982845
     9   C  -  13   H       0.960229       0.982558
     9   C  -  11   H       0.959903       0.982132
     9   C  -   3   O       0.027159       0.013931

    10   H  -   8   C       0.959903       0.982132

    11   H  -   9   C       0.959903       0.982132

    12   H  -   8   C       0.960229       0.982558

    13   H  -   9   C       0.960229       0.982558

    14   H  -   8   C       0.963612       0.982845

    15   H  -   9   C       0.963612       0.982845


 Valency analysis:

   CEN ATOM   TOT.VALENCE
     1   C       3.937122
     2   C       3.935551
     3   O       1.932291
     4   H       0.889622
     5   H       0.982908
     6   H       0.980228
     7   H       0.980228
     8   C       3.939610
     9   C       3.939610
    10   H       0.980273
    11   H       0.980273
    12   H       0.981918
    13   H       0.981918
    14   H       0.984362
    15   H       0.984362

 Total charge composition:

   CEN ATOM         s          p       ELECTRONS ->P.CHARGE
     1   C       3.02549    3.38074      6.40624   -0.40624
     2   C       2.92237    2.82775      5.75012    0.24988
     3   O       3.63253    4.91546      8.54800   -0.54800
     4   H       0.66777                 0.66777    0.33223
     5   H       0.86926                 0.86926    0.13074
     6   H       0.85939                 0.85939    0.14061
     7   H       0.85939                 0.85939    0.14061
     8   C       3.03143    3.38847      6.41990   -0.41990
     9   C       3.03143    3.38847      6.41990   -0.41990
    10   H       0.85955                 0.85955    0.14045
    11   H       0.85955                 0.85955    0.14045
    12   H       0.86553                 0.86553    0.13447
    13   H       0.86553                 0.86553    0.13447
    14   H       0.87495                 0.87495    0.12505
    15   H       0.87495                 0.87495    0.12505

 Total charge composition, AO contributions:

   CEN ATOM SHL      SPHERICAL COMPONENTS
     1   C  1s       1.99091
     1   C  2s       1.03458
     1   C  2p       1.04628    1.16113    1.17333

     2   C  1s       1.99259
     2   C  2s       0.92978
     2   C  2p       1.01353    0.80049    1.01373

     3   O  1s       1.99708
     3   O  2s       1.63545
     3   O  2p       1.47060    1.48773    1.95714

     4   H  1s       0.66777

     5   H  1s       0.86926

     6   H  1s       0.85939

     7   H  1s       0.85939

     8   C  1s       1.99101
     8   C  2s       1.04042
     8   C  2p       1.14375    1.14521    1.09950

     9   C  1s       1.99101
     9   C  2s       1.04042
     9   C  2p       1.14375    1.14521    1.09950

    10   H  1s       0.85955

    11   H  1s       0.85955

    12   H  1s       0.86553

    13   H  1s       0.86553

    14   H  1s       0.87495

    15   H  1s       0.87495

 Summary of localized orbital composition:   [THRPRINT= 0.020]

   ORB  GRP  ORB.ENERGY      CENTERS/CHARGES
     1   1   -19.040195      O  3   2.000
     2   1   -10.194078      C  2   2.000
     3   1   -10.107928      C  8   2.000
     4   1   -10.107928      C  9   2.000
     5   1   -10.101338      C  1   2.000
     6   1    -0.770719      O  3   1.334   H  4   0.657
     7   1    -0.734025      O  3   1.271   C  2   0.711
     8   1    -0.587588      C  8   1.009   C  2   0.976
     9   1    -0.587588      C  9   1.009   C  2   0.976
    10   1    -0.586527      C  1   0.991   C  2   0.985   (other: 0.023)
    11   1    -0.564901      O  3   1.982
    12   1    -0.515251      C  9   1.130   H 13   0.856
    13   1    -0.515251      C  8   1.130   H 12   0.856
    14   1    -0.514233      C  9   1.121   H 15   0.868
    15   1    -0.514233      C  8   1.121   H 14   0.868
    16   1    -0.510585      C  1   1.125   H  5   0.862
    17   1    -0.509371      C  8   1.138   H 10   0.851
    18   1    -0.509371      C  9   1.138   H 11   0.851
    19   1    -0.504051      C  1   1.138   H  7   0.851
    20   1    -0.504051      C  1   1.138   H  6   0.851
    21   1    -0.308697      O  3   1.957   (other: 0.043)

 Localized orbitals saved to record      2200.2  (orbital set 4)


 **********************************************************************************************************************************
 DATASETS  * FILE   NREC   LENGTH (MB)   RECORD NAMES
              1      20      122.15       500      610      700      900      950      970     1000      129      960     1100   
                                          VAR    BASINP    GEOM    SYMINP    ZMAT    AOBASIS   BASIS     P2S    ABASIS      S 
                                         1400     1410     1200     1210     1080     1600     1650     1300     1700     1800   
                                           T        V       H0       H01     AOSYM     SMH    MOLCAS    ERIS     OPER     GRID   

              2       5        3.71       700     1000      520     1800     2200   
                                         GEOM     BASIS   MCVARS    GRID      UKS  

 PROGRAMS   *        TOTAL      IBBA       UKS       INT
 CPU TIMES  *        28.39      0.04     24.35      3.86
 REAL TIME  *        33.97 SEC
 DISK USED  *       426.89 MB      
 **********************************************************************************************************************************
 Molecular orbitals read from record     2200.2  Type=UKS/LOCAL(IBO)  
 Occupation numbers read from record     2200.2  Type=UKS/LOCAL(IBO)  
 Orbital energies read from record       2200.2  Type=UKS/LOCAL(IBO)  
 Redundancy group numbers read from rec  2200.2  Type=UKS/BETA (state 1.1)

 IBBA/SVP energy=      0.000000000000

        UKS-SCF 
   -233.22661522
 **********************************************************************************************************************************
 Molpro calculation terminated
