
 Primary working directories    : /tmp/sb13343
 Secondary working directories  : /tmp/sb13343
 Wavefunction directory         : /panfs/panasas01/chem/sb13343/wfu/
 Main file repository           : /tmp/sb13343/

 SHA1      : b4a5b34a9e711420743f49e6833241d17c61fb3c
 NAME      : 2099.9.b4a5b34
 ARCHNAME  : linux/x86_64_openmp
 FC        : /cm/shared/languages/GCC-6.1/bin/gfortran
 BLASLIB   : -lblas
 id        : simonbennie

 Nodes     nprocs
 node35-048    1

 Using customized tuning parameters: mindgm=1; mindgv=20; mindgc=4; mindgr=1; noblas=0; minvec=7
 default implementation of scratch files=df  

 memory,500,m
 geomtyp=xyz
 nosym
 noorient
 geometry={
 C         -1.53233        0.02247        0.00000
 C         -0.00192        0.01421        0.00000
 O          0.37239        1.40356        0.00000
 H          1.34248        1.44036        0.00000
 H         -1.92991       -0.99819        0.00000
 H         -1.90797        0.54382       -0.88653
 H         -1.90797        0.54382        0.88653
 C          0.54303       -0.66466       -1.26580
 C          0.54303       -0.66466        1.26580
 H          0.17836       -0.14752       -2.15943
 H          0.17836       -0.14752        2.15943
 H          0.23752       -1.71600       -1.32280
 H          0.23752       -1.71600        1.32280
 H          1.64084       -0.63767       -1.28032
 H          1.64084       -0.63767        1.28032
 }
 basis={ default,sto-3g }
 {uks,B-LYP,direct;wf,42,1,0}
 {ibba,bonds=1}

 Variables initialized (895), CPU time= 0.00 sec
 Commands  initialized (725), CPU time= 0.02 sec, 591 directives.
 Default parameters read. Elapsed time= 0.08 sec

 Checking input...
 Passed
1


                                         ***  PROGRAM SYSTEM MOLPRO  ***
                                       Copyright, TTI GmbH Stuttgart, 2015
                                    Version 2099.9 linked May 26 2017 16:03:21


 **********************************************************************************************************************************
 LABEL *                                                                                 
  64 bit serial version                                                                  DATE: 09-Jun-17          TIME: 03:16:00  
 **********************************************************************************************************************************

 SHA1:             b4a5b34a9e711420743f49e6833241d17c61fb3c
 **********************************************************************************************************************************
 SETTING GEOMTYP        =    XYZ

 Variable memory set to  500000000 words,  buffer space 

 ZSYMEL=NOSYM

 SETTING BASIS          =    STO-3G


 Recomputing integrals since basis changed


 Using spherical harmonics

 Library entry C      S STO-3G               selected for orbital group  1
 Library entry C      P STO-3G               selected for orbital group  1
 Library entry O      S STO-3G               selected for orbital group  2
 Library entry O      P STO-3G               selected for orbital group  2
 Library entry H      S STO-3G               selected for orbital group  3


 PROGRAM * SEWARD (Integral evaluation for generally contracted gaussian basis sets)     Author: Roland Lindh, 1990

 Geometry written to block  1 of record 700


 Point group  C1  



 ATOMIC COORDINATES

 NR  ATOM    CHARGE       X              Y              Z

   1  C       6.00   -2.895684032    0.042462146    0.000000000
   2  C       6.00   -0.003628274    0.026853008    0.000000000
   3  O       8.00    0.703715112    2.652343999    0.000000000
   4  H       1.00    2.536919528    2.721885921    0.000000000
   5  H       1.00   -3.647001345   -1.886305720    0.000000000
   6  H       1.00   -3.605540754    1.027670861   -1.675298901
   7  H       1.00   -3.605540754    1.027670861    1.675298901
   8  C       6.00    1.026177977   -1.256025366   -2.392015328
   9  C       6.00    1.026177977   -1.256025366    2.392015328
  10  H       1.00    0.337051552   -0.278772398   -4.080731285
  11  H       1.00    0.337051552   -0.278772398    4.080731285
  12  H       1.00    0.448847749   -3.242770030   -2.499729718
  13  H       1.00    0.448847749   -3.242770030    2.499729718
  14  H       1.00    3.100738214   -1.205021658   -2.419454152
  15  H       1.00    3.100738214   -1.205021658    2.419454152

 Bond lengths in Bohr (Angstrom)

 1-2  2.892097881  1-5  2.069933136  1-6  2.069096224  1-7  2.069096224  2-3  2.719106031
     ( 1.530432290)     ( 1.095361444)     ( 1.094918569)     ( 1.094918569)     ( 1.438888946)

  2- 8  2.903104402   2- 9  2.903104402   3- 4  1.834522965   8-10  2.069222119   8-12  2.071730422
       ( 1.536256691)       ( 1.536256691)       ( 0.970787746)       ( 1.094985190)       ( 1.096312526)

  8-14  2.075368508   9-11  2.069222119   9-13  2.071730422   9-15  2.075368508
       ( 1.098237719)       ( 1.094985190)       ( 1.096312526)       ( 1.098237719)

 Bond angles

  1-2-3  104.76902697   1-2-8  110.92255387   1-2-9  110.92255387   2-1-5  110.97328220

  2- 1- 6  110.22090701   2- 1- 7  110.22090701   2- 3- 4  107.25071562   2- 8-10  110.21836376

  2- 8-12  111.57747468   2- 8-14  110.77023896   2- 9-11  110.21836376   2- 9-13  111.57747468

  2- 9-15  110.77023896   3- 2- 8  109.53648747   3- 2- 9  109.53648747   5- 1- 6  108.61190457

  5- 1- 7  108.61190457   6- 1- 7  108.12870271   8- 2- 9  110.96453384  10- 8-12  108.52192632

 10- 8-14  108.08997829  11- 9-13  108.52192632  11- 9-15  108.08997829  12- 8-14  107.54424578

 13- 9-15  107.54424578

 NUCLEAR CHARGE:                   42
 NUMBER OF PRIMITIVE AOS:         105
 NUMBER OF SYMMETRY AOS:          105
 NUMBER OF CONTRACTIONS:           35   (  35A   )
 NUMBER OF CORE ORBITALS:           5   (   5A   )
 NUMBER OF VALENCE ORBITALS:       30   (  30A   )


 NUCLEAR REPULSION ENERGY  198.77359127


 Eigenvalues of metric

         1 0.207E+00 0.227E+00 0.228E+00 0.304E+00 0.354E+00 0.360E+00 0.361E+00 0.363E+00


 Contracted 2-electron integrals neglected if value below      1.0D-11
 AO integral compression algorithm  1   Integral accuracy      1.0D-11

     1.573 MB (compressed) written to integral file ( 87.8%)


 NUMBER OF SORTED TWO-ELECTRON INTEGRALS:     198765.     BUFFER LENGTH:  32768
 NUMBER OF SEGMENTS:   1  SEGMENT LENGTH:     198765      RECORD LENGTH: 524288

 Memory used in sort:       0.76 MW

 SORT1 READ      224962. AND WROTE      188577. INTEGRALS IN      1 RECORDS. CPU TIME:     0.00 SEC, REAL TIME:     0.01 SEC
 SORT2 READ      188577. AND WROTE      198765. INTEGRALS IN      6 RECORDS. CPU TIME:     0.03 SEC, REAL TIME:     0.02 SEC

 FILE SIZES:   FILE 1:    31.8 MBYTE,  FILE 4:     4.2 MBYTE,   TOTAL:     36.0 MBYTE

 OPERATOR DM      FOR CENTER  0  COORDINATES:    0.000000    0.000000    0.000000


 **********************************************************************************************************************************
 DATASETS  * FILE   NREC   LENGTH (MB)   RECORD NAMES
              1      19       31.10       500      610      700      900      950      970     1000      129      960     1100   
                                          VAR    BASINP    GEOM    SYMINP    ZMAT    AOBASIS   BASIS     P2S    ABASIS      S 
                                         1400     1410     1200     1210     1080     1600     1650     1300     1700   
                                           T        V       H0       H01     AOSYM     SMH    MOLCAS    ERIS     OPER   

 PROGRAMS   *        TOTAL       INT
 CPU TIMES  *         0.59      0.46
 REAL TIME  *         1.10 SEC
 DISK USED  *        36.55 MB      
 **********************************************************************************************************************************

 Density functional group B-LYP=B88+LYP
 Functional: B88(Automatically generated (new) B88)                            Gradient terms: 1
 Functional: LYP(Automatically generated (new) LYP)                            Gradient terms: 1
 Use grid at  1800.2

 Functional: B88                       Factor:  1.0000
 Functional: LYP                       Factor:  1.0000

 Generated new metagrid on record  1800.2 with target accuracy 1.0D-06 and 53396 points in CPU time    1.6
 Computed new grid on record 1800.1 in CPU time    1.8
   32369 words reserved for DFT integration

 PROGRAM * UKS-SCF (Unrestricted Kohn-Sham)     Authors: W. Meyer, H.-J. Werner, P.J. Knowles, 1993

 NUMBER OF ELECTRONS:      21+   21-    SPACE SYMMETRY=1    SPIN SYMMETRY: Singlet 
 CONVERGENCE THRESHOLDS:    1.00E-05 (Density)    1.00E-06 (Energy)
 MAX. NUMBER OF ITERATIONS:       60
 INTERPOLATION TYPE:            DIIS
 INTERPOLATION STEPS:              2 (START)      1 (STEP)
 LEVEL SHIFTS:                 -0.20 (ALPHA)  -0.20 (BETA) 



 Use fine grid record 1800.2 for energy threshold  1.0D-06
 Orbital guess generated from atomic densities. Full valence occupancy:   21

 Molecular orbital dump at record        2200.2

 Initial alpha occupation  21
 Initial beta  occupation  21

 ITERATION    DDIFF          GRAD             ENERGY        2-EL.EN.            DIPOLE MOMENTS         DIIS
    1      0.000D+00      0.000D+00      -230.21513788    640.037037    0.76853   -1.05694    0.00000    0
    2      0.619D-01      0.199D-01      -230.54930112    620.729601    0.21957   -0.32346    0.00000    1
    3      0.107D-01      0.426D-02      -230.56309542    623.612832    0.30805   -0.35228    0.00000    2
    4      0.105D-02      0.427D-03      -230.56328271    623.572681    0.31585   -0.36176    0.00000    3
    5      0.526D-03      0.134D-03      -230.56331176    623.566191    0.31589   -0.35436    0.00000    4
    6      0.150D-03      0.319D-04      -230.56331384    623.564577    0.31623   -0.35411    0.00000    5
    7      0.337D-04      0.727D-05      -230.56331390    623.565223    0.31594   -0.35374    0.00000    5
    8      0.117D-04      0.493D-05      -230.56331392    623.564759    0.31601   -0.35388    0.00000    6
    9      0.176D-05      0.398D-06      -230.56331392    623.564833    0.31601   -0.35386    0.00000    6
   10      0.612D-06      0.205D-06      -230.56331392    623.564798    0.31601   -0.35387    0.00000    6

 Final alpha occupancy:  21
 Final beta  occupancy:  21

 !UKS STATE 1.1 Energy               -230.563313915467
 Nuclear energy                       198.77359127
 One-electron energy                 -707.15403952
 Two-electron energy                  311.78239904
 Density functional                   -33.96526471     B88=-32.59769088 LYP= -1.36757383
 Virial quotient                       -1.01520502
 !UKS STATE 1.1 Dipole moment           0.31601047    -0.35386910     0.00000000
 Dipole moment /Debye                   0.80316590    -0.89938662     0.00000000

 Orbital energies for positive spin:

         1.1          2.1          3.1          4.1          5.1          6.1          7.1          8.1          9.1         10.1
    -18.498266    -9.797929    -9.737848    -9.737585    -9.737495    -0.847577    -0.658825    -0.577869    -0.576986    -0.449785

        11.1         12.1         13.1         14.1         15.1         16.1         17.1         18.1         19.1         20.1
     -0.376322    -0.349204    -0.348642    -0.308593    -0.304022    -0.280934    -0.279922    -0.249272    -0.245973    -0.144934

        21.1         22.1         23.1
     -0.060571     0.257117     0.316151

 Orbital energies for negative spin:

         1.1          2.1          3.1          4.1          5.1          6.1          7.1          8.1          9.1         10.1
    -18.498266    -9.797929    -9.737848    -9.737585    -9.737495    -0.847577    -0.658825    -0.577869    -0.576986    -0.449785

        11.1         12.1         13.1         14.1         15.1         16.1         17.1         18.1         19.1         20.1
     -0.376322    -0.349204    -0.348642    -0.308593    -0.304022    -0.280934    -0.279922    -0.249272    -0.245973    -0.144934

        21.1         22.1         23.1
     -0.060571     0.257117     0.316151

 HOMO     21.1    -0.060571 =      -1.6482eV
 LUMO     22.1     0.257117 =       6.9965eV
 LUMO-HOMO         0.317688 =       8.6447eV

 EXPECTATION VALUE OF S**2:             0.00000000

 Natural orbitals saved to record    2200.2 (Orbital set 3)

 Orbital spaces for UNO-CAS (Min. occupation: 0.020  Max. occupation: 1.980):

 Closed:       21
 Active:        0


 **********************************************************************************************************************************
 DATASETS  * FILE   NREC   LENGTH (MB)   RECORD NAMES
              1      20       32.81       500      610      700      900      950      970     1000      129      960     1100   
                                          VAR    BASINP    GEOM    SYMINP    ZMAT    AOBASIS   BASIS     P2S    ABASIS      S 
                                         1400     1410     1200     1210     1080     1600     1650     1300     1700     1800   
                                           T        V       H0       H01     AOSYM     SMH    MOLCAS    ERIS     OPER     GRID   

              2       5        3.05       700     1000      520     1800     2200   
                                         GEOM     BASIS   MCVARS    GRID      UKS  

 PROGRAMS   *        TOTAL       UKS       INT
 CPU TIMES  *         6.46      5.86      0.46
 REAL TIME  *         7.67 SEC
 DISK USED  *        36.55 MB      
 **********************************************************************************************************************************


 PROGRAM * Intrinsic Basis Bonding Analysis (IBBA)          Author: G. Knizia

 Molecular orbitals read from record     2200.2  Type=UKS/ALPHA (state 1.1)
 Fock matrix read from record            2200.2  Type=UKS/TOTAL (state 1.1)
 Orbital energies read from record       2200.2  Type=UKS/ALPHA (state 1.1)
 Density matrix read from record         2200.2  Type=UKS/CHARGE (state 1.1)

 Number of core orbitals:           5 (   5 )
 Number of closed-shell orbitals:  16 (  16 )

 Basis set MINAO-AUTO-PP generated.      Number of basis functions:   35 

 Polarized AO type:                A = (O Ot + (1-O)(1-Ot)) P12
 Orthogonalization method:         Symmetric (Loewdin)
 Localization functional:          L = sum[A,i] <i|n_A|i>^4 -> max

 Localization group 1:  21 orbitals, occupancy  2.000
 Iterative localization: IB/PM,    7 iter; Final gradient 0.13E-08

 Bond order analysis:       [THRPRINT= 0.020]

   CEN ATOM   CEN ATOM     WIBERG.BO      RENORM.BO
     1   C  -   2   C       0.989871       0.984940
     1   C  -   5   H       0.966835       0.989732
     1   C  -   6   H       0.963482       0.986766
     1   C  -   7   H       0.963482       0.986766

     2   C  -   3   O       1.004618       0.982083
     2   C  -   1   C       0.989871       0.984940
     2   C  -   8   C       0.984916       0.958251
     2   C  -   9   C       0.984916       0.958251

     3   O  -   2   C       1.004618       0.982083
     3   O  -   4   H       0.930736       0.980990
     3   O  -   9   C       0.030010       0.015543
     3   O  -   8   C       0.030010       0.015543

     4   H  -   3   O       0.930736       0.980990

     5   H  -   1   C       0.966835       0.989732

     6   H  -   1   C       0.963482       0.986766

     7   H  -   1   C       0.963482       0.986766

     8   C  -   2   C       0.984916       0.958251
     8   C  -  14   H       0.966238       0.985961
     8   C  -  12   H       0.964566       0.986841
     8   C  -  10   H       0.964367       0.986452
     8   C  -   3   O       0.030010       0.015543

     9   C  -   2   C       0.984916       0.958251
     9   C  -  15   H       0.966238       0.985961
     9   C  -  13   H       0.964566       0.986841
     9   C  -  11   H       0.964367       0.986452
     9   C  -   3   O       0.030010       0.015543

    10   H  -   8   C       0.964367       0.986452

    11   H  -   9   C       0.964367       0.986452

    12   H  -   8   C       0.964566       0.986841

    13   H  -   9   C       0.964566       0.986841

    14   H  -   8   C       0.966238       0.985961

    15   H  -   9   C       0.966238       0.985961


 Valency analysis:

   CEN ATOM   TOT.VALENCE
     1   C       3.935172
     2   C       3.973908
     3   O       2.047927
     4   H       0.948968
     5   H       0.983329
     6   H       0.981822
     7   H       0.981822
     8   C       3.938018
     9   C       3.938018
    10   H       0.982454
    11   H       0.982454
    12   H       0.982987
    13   H       0.982987
    14   H       0.984790
    15   H       0.984790

 Total charge composition:

   CEN ATOM         s          p       ELECTRONS ->P.CHARGE
     1   C       2.99787    3.38987      6.38774   -0.38774
     2   C       2.94583    2.93570      5.88153    0.11847
     3   O       3.68676    4.63916      8.32593   -0.32593
     4   H       0.77410                 0.77410    0.22590
     5   H       0.87089                 0.87089    0.12911
     6   H       0.86518                 0.86518    0.13482
     7   H       0.86518                 0.86518    0.13482
     8   C       3.00312    3.39784      6.40096   -0.40096
     9   C       3.00312    3.39784      6.40096   -0.40096
    10   H       0.86754                 0.86754    0.13246
    11   H       0.86754                 0.86754    0.13246
    12   H       0.86957                 0.86957    0.13043
    13   H       0.86957                 0.86957    0.13043
    14   H       0.87667                 0.87667    0.12333
    15   H       0.87667                 0.87667    0.12333

 Total charge composition, AO contributions:

   CEN ATOM SHL      SPHERICAL COMPONENTS
     1   C  1s       1.99207
     1   C  2s       1.00580
     1   C  2p       1.05079    1.16567    1.17340

     2   C  1s       1.99346
     2   C  2s       0.95238
     2   C  2p       1.03030    0.87727    1.02812

     3   O  1s       1.99737
     3   O  2s       1.68939
     3   O  2p       1.34474    1.34359    1.95083

     4   H  1s       0.77410

     5   H  1s       0.87089

     6   H  1s       0.86518

     7   H  1s       0.86518

     8   C  1s       1.99217
     8   C  2s       1.01095
     8   C  2p       1.14803    1.14893    1.10089

     9   C  1s       1.99217
     9   C  2s       1.01095
     9   C  2p       1.14803    1.14893    1.10089

    10   H  1s       0.86754

    11   H  1s       0.86754

    12   H  1s       0.86957

    13   H  1s       0.86957

    14   H  1s       0.87667

    15   H  1s       0.87667

 Summary of localized orbital composition:   [THRPRINT= 0.020]

   ORB  GRP  ORB.ENERGY      CENTERS/CHARGES
     1   1   -18.329206      O  3   2.000
     2   1    -9.706824      C  2   2.000
     3   1    -9.628674      C  8   2.000
     4   1    -9.628674      C  9   2.000
     5   1    -9.628104      C  1   2.000
     6   1    -0.584336      O  3   1.225   H  4   0.766
     7   1    -0.539443      O  3   1.160   C  2   0.823
     8   1    -0.459501      C  2   0.994   C  1   0.983   (other: 0.023)
     9   1    -0.458810      C  8   0.999   C  2   0.987
    10   1    -0.458810      C  9   0.999   C  2   0.987
    11   1    -0.419062      O  3   1.985
    12   1    -0.409011      C  9   1.120   H 15   0.870
    13   1    -0.409011      C  8   1.120   H 14   0.870
    14   1    -0.407474      C  9   1.128   H 13   0.862
    15   1    -0.407474      C  8   1.128   H 12   0.862
    16   1    -0.406214      C  1   1.126   H  5   0.864
    17   1    -0.404698      C  9   1.131   H 11   0.860
    18   1    -0.404698      C  8   1.131   H 10   0.860
    19   1    -0.400537      C  1   1.132   H  6   0.858
    20   1    -0.400537      C  1   1.132   H  7   0.858
    21   1    -0.077461      O  3   1.951   C  2   0.023   (other: 0.026)

 Localized orbitals saved to record      2200.2  (orbital set 4)


 **********************************************************************************************************************************
 DATASETS  * FILE   NREC   LENGTH (MB)   RECORD NAMES
              1      20       32.81       500      610      700      900      950      970     1000      129      960     1100   
                                          VAR    BASINP    GEOM    SYMINP    ZMAT    AOBASIS   BASIS     P2S    ABASIS      S 
                                         1400     1410     1200     1210     1080     1600     1650     1300     1700     1800   
                                           T        V       H0       H01     AOSYM     SMH    MOLCAS    ERIS     OPER     GRID   

              2       5        3.06       700     1000      520     1800     2200   
                                         GEOM     BASIS   MCVARS    GRID      UKS  

 PROGRAMS   *        TOTAL      IBBA       UKS       INT
 CPU TIMES  *         6.49      0.03      5.86      0.46
 REAL TIME  *         7.81 SEC
 DISK USED  *        36.55 MB      
 **********************************************************************************************************************************
 Molecular orbitals read from record     2200.2  Type=UKS/LOCAL(IBO)  
 Occupation numbers read from record     2200.2  Type=UKS/LOCAL(IBO)  
 Orbital energies read from record       2200.2  Type=UKS/LOCAL(IBO)  
 Redundancy group numbers read from rec  2200.2  Type=UKS/BETA (state 1.1)

 IBBA/STO-3G energy=      0.000000000000

        UKS-SCF 
   -230.56331392
 **********************************************************************************************************************************
 Molpro calculation terminated
