
 Primary working directories    : /tmp/sb13343
 Secondary working directories  : /tmp/sb13343
 Wavefunction directory         : /panfs/panasas01/chem/sb13343/wfu/
 Main file repository           : /tmp/sb13343/

 SHA1      : b4a5b34a9e711420743f49e6833241d17c61fb3c
 NAME      : 2099.9.b4a5b34
 ARCHNAME  : linux/x86_64_openmp
 FC        : /cm/shared/languages/GCC-6.1/bin/gfortran
 BLASLIB   : -lblas
 id        : simonbennie

 Nodes     nprocs
 node32-030    1

 Using customized tuning parameters: mindgm=1; mindgv=20; mindgc=4; mindgr=1; noblas=0; minvec=7
 default implementation of scratch files=df  

 memory,500,m
 geomtyp=xyz
 nosym
 noorient
 geometry={
 H         -1.13405        1.76167        0.00000
 C         -1.32915        0.67205        0.00000
 C         -0.06360       -0.12883        0.00000
 C          0.67426       -0.31636        1.28970
 C          0.67426       -0.31636       -1.28970
 H         -1.94006        0.46750        0.88859
 H         -1.94006        0.46750       -0.88859
 H          1.28359        0.56876        1.55544
 H         -0.01165       -0.48291        2.13019
 H          1.36783       -1.16569        1.24157
 H          1.28359        0.56876       -1.55544
 H         -0.01165       -0.48291       -2.13019
 H          1.36783       -1.16569       -1.24157
 }
 basis={ default,svp }
 {ks,SOGGA,direct;wf,33,1,1}
 {ibba,bonds=1}

 Variables initialized (895), CPU time= 0.01 sec
 Commands  initialized (725), CPU time= 0.01 sec, 591 directives.
 Default parameters read. Elapsed time= 0.12 sec

 Checking input...
 Passed
1


                                         ***  PROGRAM SYSTEM MOLPRO  ***
                                       Copyright, TTI GmbH Stuttgart, 2015
                                    Version 2099.9 linked May 26 2017 16:03:21


 **********************************************************************************************************************************
 LABEL *                                                                                 
  64 bit serial version                                                                  DATE: 08-Jun-17          TIME: 20:50:01  
 **********************************************************************************************************************************

 SHA1:             b4a5b34a9e711420743f49e6833241d17c61fb3c
 **********************************************************************************************************************************
 SETTING GEOMTYP        =    XYZ

 Variable memory set to  500000000 words,  buffer space 

 ZSYMEL=NOSYM

 SETTING BASIS          =    SVP


 Recomputing integrals since basis changed


 Using spherical harmonics

 Library entry H      S def2-SVP             selected for orbital group  1
 Library entry H      P def2-SVP             selected for orbital group  1
 Library entry C      S def2-SVP             selected for orbital group  2
 Library entry C      P def2-SVP             selected for orbital group  2
 Library entry C      D def2-SVP             selected for orbital group  2


 PROGRAM * SEWARD (Integral evaluation for generally contracted gaussian basis sets)     Author: Roland Lindh, 1990

 Geometry written to block  1 of record 700


 Point group  C1  



 ATOMIC COORDINATES

 NR  ATOM    CHARGE       X              Y              Z

   1  H       1.00   -2.143043912    3.329073822    0.000000000
   2  C       6.00   -2.511729478    1.269990442    0.000000000
   3  C       6.00   -0.120186582   -0.243453417    0.000000000
   4  C       6.00    1.274166737   -0.597833757    2.437179783
   5  C       6.00    1.274166737   -0.597833757   -2.437179783
   6  H       1.00   -3.666182065    0.883446963    1.679191737
   7  H       1.00   -3.666182065    0.883446963   -1.679191737
   8  H       1.00    2.425633556    1.074800631    2.939355603
   9  H       1.00   -0.022015309   -0.912567643    4.025475693
  10  H       1.00    2.584824085   -2.202834846    2.346227264
  11  H       1.00    2.425633556    1.074800631   -2.939355603
  12  H       1.00   -0.022015309   -0.912567643   -4.025475693
  13  H       1.00    2.584824085   -2.202834846   -2.346227264

 Bond lengths in Bohr (Angstrom)

 1-2  2.091830159  2-3  2.830192527  2-6  2.074092940  2-7  2.074092940  3-4  2.830132841
     ( 1.106948849)     ( 1.497673388)     ( 1.097562717)     ( 1.097562717)     ( 1.497641803)

  3- 5  2.830132841   4- 8  2.091832255   4- 9  2.074085151   4-10  2.074156104   5-11  2.091832255
       ( 1.497641803)       ( 1.106949959)       ( 1.097558596)       ( 1.097596142)       ( 1.106949959)

  5-12  2.074085151   5-13  2.074156104
       ( 1.097558596)       ( 1.097596142)

 Bond angles

  1-2-3  112.17549786   1-2-6  106.35284965   1-2-7  106.35284965   2-3-4  118.89987932

  2-3-5  118.89987932   3-2-6  111.75744418   3-2-7  111.75744418   3-4-8  112.19808176

  3- 4- 9  111.75014522   3- 4-10  111.74379558   3- 5-11  112.19808176   3- 5-12  111.75014522

  3- 5-13  111.74379558   4- 3- 5  118.89276928   6- 2- 7  108.11431090   8- 4- 9  106.34995457

  8- 4-10  106.34572146   9- 4-10  108.12296896  11- 5-12  106.34995457  11- 5-13  106.34572146

 12- 5-13  108.12296896

 NUCLEAR CHARGE:                   33
 NUMBER OF PRIMITIVE AOS:         163
 NUMBER OF SYMMETRY AOS:          159
 NUMBER OF CONTRACTIONS:          101   ( 101A   )
 NUMBER OF CORE ORBITALS:           4   (   4A   )
 NUMBER OF VALENCE ORBITALS:       25   (  25A   )


 NUCLEAR REPULSION ENERGY  124.92676597


 Eigenvalues of metric

         1 0.371E-02 0.424E-02 0.424E-02 0.242E-01 0.242E-01 0.268E-01 0.277E-01 0.371E-01


 Contracted 2-electron integrals neglected if value below      1.0D-11
 AO integral compression algorithm  1   Integral accuracy      1.0D-11

     53.477 MB (compressed) written to integral file ( 46.4%)


 NUMBER OF SORTED TWO-ELECTRON INTEGRALS:   13268976.     BUFFER LENGTH:  32768
 NUMBER OF SEGMENTS:   1  SEGMENT LENGTH:   13268976      RECORD LENGTH: 524288

 Memory used in sort:      13.83 MW

 SORT1 READ    14422061. AND WROTE    12225547. INTEGRALS IN     35 RECORDS. CPU TIME:     0.18 SEC, REAL TIME:     0.35 SEC
 SORT2 READ    12225547. AND WROTE    13268976. INTEGRALS IN    204 RECORDS. CPU TIME:     0.35 SEC, REAL TIME:     0.44 SEC

 FILE SIZES:   FILE 1:    84.0 MBYTE,  FILE 4:   146.8 MBYTE,   TOTAL:    230.9 MBYTE

 OPERATOR DM      FOR CENTER  0  COORDINATES:    0.000000    0.000000    0.000000


 **********************************************************************************************************************************
 DATASETS  * FILE   NREC   LENGTH (MB)   RECORD NAMES
              1      19       77.16       500      610      700      900      950      970     1000      129      960     1100   
                                          VAR    BASINP    GEOM    SYMINP    ZMAT    AOBASIS   BASIS     P2S    ABASIS      S 
                                         1400     1410     1200     1210     1080     1600     1650     1300     1700   
                                           T        V       H0       H01     AOSYM     SMH    MOLCAS    ERIS     OPER   

 PROGRAMS   *        TOTAL       INT
 CPU TIMES  *         2.48      2.33
 REAL TIME  *         3.24 SEC
 DISK USED  *       231.35 MB      
 **********************************************************************************************************************************

 Density functional group SOGGA=XC-SOGGA
 Functional: XC-SOGGA(via MFM 1.6)                                             Gradient terms: 1
 Use grid at  1800.2

 Functional: XC-SOGGA                  Factor:  1.0000

 Generated new metagrid on record  1800.2 with target accuracy 1.0D-06 and 45406 points in CPU time    1.4
 Computed new grid on record 1800.1 in CPU time    1.5
   84355 words reserved for DFT integration

 PROGRAM * RKS-SCF (Restricted open shell Kohn-Sham)     Authors: W. Meyer, H.-J. Werner, P.J. Knowles, 1993

 NUMBER OF ELECTRONS:      17+   16-    SPACE SYMMETRY=1    SPIN SYMMETRY: Doublet 
 CONVERGENCE THRESHOLDS:    1.00E-05 (Density)    1.00E-06 (Energy)
 MAX. NUMBER OF ITERATIONS:       60
 INTERPOLATION TYPE:            DIIS
 INTERPOLATION STEPS:              2 (START)      1 (STEP)
 LEVEL SHIFTS:                 -0.60 (CLOSED) -0.30 (OPEN) 



 Use fine grid record 1800.2 for energy threshold  1.0D-06
 Orbital guess generated from atomic densities. Full valence occupancy:   17

 Molecular orbital dump at record        2100.2

 Initial alpha occupancy:  17
 Initial beta  occupancy:  16
 Wave function symmetry:    1

 ITERATION    DDIFF          GRAD             ENERGY        2-EL.EN.            DIPOLE MOMENTS         DIIS   ORB.
    1      0.000D+00      0.000D+00      -156.31367973    413.861444    0.14338    0.28979    0.00000    0    start
    2      0.000D+00      0.121D-01      -156.53569334    395.979346    0.03027    0.06135    0.00000    1    diag,B
    3      0.140D-01      0.472D-02      -156.56548476    400.023158    0.05659    0.11444    0.00000    2    diag,B
    4      0.409D-02      0.586D-03      -156.56648761    399.684403    0.04799    0.09703    0.00000    3    diag,B
    5      0.138D-02      0.247D-03      -156.56667924    399.690931    0.04951    0.10010    0.00000    4    diag,B
    6      0.601D-03      0.928D-04      -156.56671659    399.645919    0.04794    0.09689    0.00000    5    diag,B
    7      0.358D-03      0.236D-04      -156.56671990    399.642724    0.04833    0.09769    0.00000    6    fixocc
    8      0.118D-03      0.785D-05      -156.56672031    399.642985    0.04835    0.09771    0.00000    7    diag,B
    9      0.450D-04      0.205D-05      -156.56672033    399.642986    0.04845    0.09791    0.00000    8    diag,B
   10      0.927D-05      0.723D-06      -156.56672033    399.642901    0.04844    0.09789    0.00000    0    orth

 Final alpha occupancy:  17
 Final beta  occupancy:  16

 !RKS STATE 1.1 Energy               -156.566720332662
 Nuclear energy                       124.92676597
 One-electron energy                 -457.47716921
 Two-electron energy                  199.82145056
 Density functional                   -23.83776765     XC-SOGGA=-23.83776765
 Virial quotient                       -1.00894589
 !RKS STATE 1.1 Dipole moment           0.04843716     0.09788898     0.00000000
 Dipole moment /Debye                   0.12310693     0.24879266     0.00000000

 Orbital energies:

         1.1          2.1          3.1          4.1          5.1          6.1          7.1          8.1          9.1         10.1
     -9.829462    -9.819608    -9.819607    -9.819575    -0.704234    -0.606318    -0.606313    -0.457935    -0.382022    -0.382016

        11.1         12.1         13.1         14.1         15.1         16.1         17.1         18.1         19.1
     -0.377352    -0.327895    -0.327866    -0.310597    -0.291616    -0.291612    -0.126868     0.040443     0.089367

 HOMO     17.1    -0.126868 =      -3.4522eV
 LUMO     18.1     0.040443 =       1.1005eV
 LUMO-HOMO         0.167310 =       4.5527eV


 **********************************************************************************************************************************
 DATASETS  * FILE   NREC   LENGTH (MB)   RECORD NAMES
              1      20       78.61       500      610      700      900      950      970     1000      129      960     1100   
                                          VAR    BASINP    GEOM    SYMINP    ZMAT    AOBASIS   BASIS     P2S    ABASIS      S 
                                         1400     1410     1200     1210     1080     1600     1650     1300     1700     1800   
                                           T        V       H0       H01     AOSYM     SMH    MOLCAS    ERIS     OPER     GRID   

              2       5        3.26       700     1000      520     1800     2100   
                                         GEOM     BASIS   MCVARS    GRID      RKS  

 PROGRAMS   *        TOTAL        KS       INT
 CPU TIMES  *        16.05     13.57      2.33
 REAL TIME  *        17.89 SEC
 DISK USED  *       231.35 MB      
 **********************************************************************************************************************************


 PROGRAM * Intrinsic Basis Bonding Analysis (IBBA)          Author: G. Knizia

 Molecular orbitals read from record     2100.2  Type=RKS/CANONICAL (state 1.1)
 Fock matrix read from record            2100.2  Type=RKS/TOTAL (state 1.1)
 Orbital energies read from record       2100.2  Type=RKS/CANONICAL (state 1.1)
 Density matrix read from record         2100.2  Type=RKS/CHARGE (state 1.1)

 Number of core orbitals:           4 (   4 )
 Number of closed-shell orbitals:  12 (  12 )
 Number of active  orbitals:        1 (   1 )

 Basis set MINAO-AUTO-PP generated.      Number of basis functions:   29 

 Polarized AO type:                A = (O Ot + (1-O)(1-Ot)) P12
 Orthogonalization method:         Symmetric (Loewdin)
 Localization functional:          L = sum[A,i] <i|n_A|i>^4 -> max

 Localization group 1:  16 orbitals, occupancy  2.000
 Iterative localization: IB/PM,    7 iter; Final gradient 0.35E-08

 Bond order analysis:       [THRPRINT= 0.020]

   CEN ATOM   CEN ATOM     WIBERG.BO      RENORM.BO
     1   H  -   2   C       0.908506       0.998053
     1   H  -   3   C       0.039524       0.191803

     2   C  -   3   C       1.089568       1.311802
     2   C  -   6   H       0.947841       0.985989
     2   C  -   7   H       0.947841       0.985989
     2   C  -   1   H       0.908506       0.998053

     3   C  -   2   C       1.089568       1.311802
     3   C  -   5   C       1.089549       1.311748
     3   C  -   4   C       1.089549       1.311748
     3   C  -   1   H       0.039524       0.191803
     3   C  -  11   H       0.039494       0.191659
     3   C  -   8   H       0.039494       0.191659

     4   C  -   3   C       1.089549       1.311748
     4   C  -   9   H       0.947879       0.985980
     4   C  -  10   H       0.947783       0.986006
     4   C  -   8   H       0.908530       0.998048

     5   C  -   3   C       1.089549       1.311748
     5   C  -  12   H       0.947879       0.985980
     5   C  -  13   H       0.947783       0.986006
     5   C  -  11   H       0.908530       0.998048

     6   H  -   2   C       0.947841       0.985989

     7   H  -   2   C       0.947841       0.985989

     8   H  -   4   C       0.908530       0.998048
     8   H  -   3   C       0.039494       0.191659

     9   H  -   4   C       0.947879       0.985980

    10   H  -   4   C       0.947783       0.986006

    11   H  -   5   C       0.908530       0.998048
    11   H  -   3   C       0.039494       0.191659

    12   H  -   5   C       0.947879       0.985980

    13   H  -   5   C       0.947783       0.986006


 Valency analysis:

   CEN ATOM   TOT.VALENCE
     1   H       0.963082
     2   C       3.932232
     3   C       3.437272
     4   C       3.932217
     5   C       3.932217
     6   H       0.976195
     7   H       0.976195
     8   H       0.963078
     9   H       0.976210
    10   H       0.976175
    11   H       0.963078
    12   H       0.976210
    13   H       0.976175
 Localization group 2:   1 orbitals, occupancy  1.000
 Iterative localization: IB/PM,    1 iter; Final gradient 0.00E+00

 Bond order analysis:       [THRPRINT= 0.020]

   CEN ATOM   CEN ATOM     WIBERG.BO      RENORM.BO
     1   H  -   3   C       0.083682       0.500000


     3   C  -   1   H       0.083682       0.500000
     3   C  -  11   H       0.083673       0.500000
     3   C  -   8   H       0.083673       0.500000





     8   H  -   3   C       0.083673       0.500000



    11   H  -   3   C       0.083673       0.500000




 Valency analysis:

   CEN ATOM   TOT.VALENCE
     1   H       0.102006
     2   C       0.004170
     3   C       0.347496
     4   C       0.004157
     5   C       0.004157
     6   H       0.018448
     7   H       0.018448
     8   H       0.101995
     9   H       0.018383
    10   H       0.018539
    11   H       0.101995
    12   H       0.018383
    13   H       0.018539

 Total charge composition:

   CEN ATOM         s          p       ELECTRONS ->P.CHARGE
     1   H       0.86177                 0.86177    0.13823
     2   C       3.01552    3.41809      6.43361   -0.43361
     3   C       2.96014    3.02354      5.98368    0.01632
     4   C       3.01552    3.41814      6.43366   -0.43366
     5   C       3.01552    3.41814      6.43366   -0.43366
     6   H       0.85502                 0.85502    0.14498
     7   H       0.85502                 0.85502    0.14498
     8   H       0.86175                 0.86175    0.13825
     9   H       0.85504                 0.85504    0.14496
    10   H       0.85501                 0.85501    0.14499
    11   H       0.86175                 0.86175    0.13825
    12   H       0.85504                 0.85504    0.14496
    13   H       0.85501                 0.85501    0.14499

 Total charge composition, AO contributions:

   CEN ATOM SHL      SPHERICAL COMPONENTS
     1   H  1s       0.86177

     2   C  1s       1.99139
     2   C  2s       1.02414
     2   C  2p       1.10524    1.13728    1.17557

     3   C  1s       1.99307
     3   C  2s       0.96707
     3   C  2p       1.00587    1.01465    1.00301

     4   C  1s       1.99139
     4   C  2s       1.02413
     4   C  2p       1.14969    1.16353    1.10492

     5   C  1s       1.99139
     5   C  2s       1.02413
     5   C  2p       1.14969    1.16353    1.10492

     6   H  1s       0.85502

     7   H  1s       0.85502

     8   H  1s       0.86175

     9   H  1s       0.85504

    10   H  1s       0.85501

    11   H  1s       0.86175

    12   H  1s       0.85504

    13   H  1s       0.85501

 Active orbital charges:

   CEN ATOM         s          p       ELECTRONS ->SPIN.DEN
     1   H       0.05391                 0.05391    0.05391
     2   C       0.00024    0.00185      0.00209    0.00209
     3   C       0.01506    0.76108      0.77614    0.77614
     4   C       0.00024    0.00185      0.00208    0.00208
     5   C       0.00024    0.00185      0.00208    0.00208
     6   H       0.00931                 0.00931    0.00931
     7   H       0.00931                 0.00931    0.00931
     8   H       0.05390                 0.05390    0.05390
     9   H       0.00928                 0.00928    0.00928
    10   H       0.00936                 0.00936    0.00936
    11   H       0.05390                 0.05390    0.05390
    12   H       0.00928                 0.00928    0.00928
    13   H       0.00936                 0.00936    0.00936

 Active orbital charges, AO contributions:

   CEN ATOM SHL      SPHERICAL COMPONENTS
     1   H  1s       0.05391

     2   C  1s       0.00000
     2   C  2s       0.00024
     2   C  2p       0.00000    0.00185    0.00000

     3   C  1s       0.00001
     3   C  2s       0.01505
     3   C  2p       0.14895    0.61213    0.00000

     4   C  1s       0.00000
     4   C  2s       0.00024
     4   C  2p       0.00064    0.00097    0.00024

     5   C  1s       0.00000
     5   C  2s       0.00024
     5   C  2p       0.00064    0.00097    0.00024

     6   H  1s       0.00931

     7   H  1s       0.00931

     8   H  1s       0.05390

     9   H  1s       0.00928

    10   H  1s       0.00936

    11   H  1s       0.05390

    12   H  1s       0.00928

    13   H  1s       0.00936

 Summary of localized orbital composition:   [THRPRINT= 0.020]

   ORB  GRP  ORB.ENERGY      CENTERS/CHARGES
     1   1    -9.738559      C  3   2.000
     2   1    -9.708407      C  4   2.000
     3   1    -9.708407      C  5   2.000
     4   1    -9.708404      C  2   2.000
     5   1    -0.528104      C  4   1.011   C  3   0.974
     6   1    -0.528104      C  5   1.011   C  3   0.974
     7   1    -0.528083      C  2   1.011   C  3   0.974
     8   1    -0.436364      C  2   1.132   H  1   0.803   C  3   0.061
     9   1    -0.436362      C  5   1.132   H 11   0.803   C  3   0.061
    10   1    -0.436362      C  4   1.132   H  8   0.803   C  3   0.061
    11   1    -0.432825      C  4   1.140   H  9   0.838   (other: 0.022)
    12   1    -0.432825      C  5   1.140   H 12   0.838   (other: 0.022)
    13   1    -0.432818      C  2   1.140   H  7   0.838   (other: 0.022)
    14   1    -0.432818      C  2   1.140   H  6   0.838   (other: 0.022)
    15   1    -0.432803      C  5   1.140   H 13   0.838   (other: 0.022)
    16   1    -0.432803      C  4   1.140   H 10   0.838   (other: 0.022)
    17   2    -0.093458      C  3   0.776   H  1   0.054   H 11   0.054   H  8   0.054   (other: 0.062)

 Localized orbitals saved to record      2100.2  (orbital set 2)


 **********************************************************************************************************************************
 DATASETS  * FILE   NREC   LENGTH (MB)   RECORD NAMES
              1      20       78.61       500      610      700      900      950      970     1000      129      960     1100   
                                          VAR    BASINP    GEOM    SYMINP    ZMAT    AOBASIS   BASIS     P2S    ABASIS      S 
                                         1400     1410     1200     1210     1080     1600     1650     1300     1700     1800   
                                           T        V       H0       H01     AOSYM     SMH    MOLCAS    ERIS     OPER     GRID   

              2       5        3.34       700     1000      520     1800     2100   
                                         GEOM     BASIS   MCVARS    GRID      RKS  

 PROGRAMS   *        TOTAL      IBBA        KS       INT
 CPU TIMES  *        16.09      0.04     13.57      2.33
 REAL TIME  *        18.34 SEC
 DISK USED  *       231.35 MB      
 **********************************************************************************************************************************
 Molecular orbitals read from record     2100.2  Type=RKS/LOCAL(IBO)  
 Occupation numbers read from record     2100.2  Type=RKS/LOCAL(IBO)  
 Orbital energies read from record       2100.2  Type=RKS/LOCAL(IBO)  
 Redundancy group numbers read from rec  2100.2  Type=RKS/LOCAL(IBO)  

 IBBA/SVP energy=      0.000000000000

        KS-SCF  
   -156.56672033
 **********************************************************************************************************************************
 Molpro calculation terminated
