
 Primary working directories    : /tmp/sb13343
 Secondary working directories  : /tmp/sb13343
 Wavefunction directory         : /panfs/panasas01/chem/sb13343/wfu/
 Main file repository           : /tmp/sb13343/

 SHA1      : b4a5b34a9e711420743f49e6833241d17c61fb3c
 NAME      : 2099.9.b4a5b34
 ARCHNAME  : linux/x86_64_openmp
 FC        : /cm/shared/languages/GCC-6.1/bin/gfortran
 BLASLIB   : -lblas
 id        : simonbennie

 Nodes     nprocs
 node32-018    1

 Using customized tuning parameters: mindgm=1; mindgv=20; mindgc=4; mindgr=1; noblas=0; minvec=7
 default implementation of scratch files=df  

 memory,500,m
 geomtyp=xyz
 nosym
 noorient
 geometry={
 H         -1.13405        1.76167        0.00000
 C         -1.32915        0.67205        0.00000
 C         -0.06360       -0.12883        0.00000
 C          0.67426       -0.31636        1.28970
 C          0.67426       -0.31636       -1.28970
 H         -1.94006        0.46750        0.88859
 H         -1.94006        0.46750       -0.88859
 H          1.28359        0.56876        1.55544
 H         -0.01165       -0.48291        2.13019
 H          1.36783       -1.16569        1.24157
 H          1.28359        0.56876       -1.55544
 H         -0.01165       -0.48291       -2.13019
 H          1.36783       -1.16569       -1.24157
 }
 basis={ default,svp }
 {uks,M08-SO,direct;wf,33,1,1}
 {ibba,bonds=1}

 Variables initialized (895), CPU time= 0.00 sec
 Commands  initialized (725), CPU time= 0.01 sec, 591 directives.
 Default parameters read. Elapsed time= 0.09 sec

 Checking input...
 Passed
1


                                         ***  PROGRAM SYSTEM MOLPRO  ***
                                       Copyright, TTI GmbH Stuttgart, 2015
                                    Version 2099.9 linked May 26 2017 16:03:21


 **********************************************************************************************************************************
 LABEL *                                                                                 
  64 bit serial version                                                                  DATE: 08-Jun-17          TIME: 20:46:18  
 **********************************************************************************************************************************

 SHA1:             b4a5b34a9e711420743f49e6833241d17c61fb3c
 **********************************************************************************************************************************
 SETTING GEOMTYP        =    XYZ

 Variable memory set to  500000000 words,  buffer space 

 ZSYMEL=NOSYM

 SETTING BASIS          =    SVP


 Recomputing integrals since basis changed


 Using spherical harmonics

 Library entry H      S def2-SVP             selected for orbital group  1
 Library entry H      P def2-SVP             selected for orbital group  1
 Library entry C      S def2-SVP             selected for orbital group  2
 Library entry C      P def2-SVP             selected for orbital group  2
 Library entry C      D def2-SVP             selected for orbital group  2


 PROGRAM * SEWARD (Integral evaluation for generally contracted gaussian basis sets)     Author: Roland Lindh, 1990

 Geometry written to block  1 of record 700


 Point group  C1  



 ATOMIC COORDINATES

 NR  ATOM    CHARGE       X              Y              Z

   1  H       1.00   -2.143043912    3.329073822    0.000000000
   2  C       6.00   -2.511729478    1.269990442    0.000000000
   3  C       6.00   -0.120186582   -0.243453417    0.000000000
   4  C       6.00    1.274166737   -0.597833757    2.437179783
   5  C       6.00    1.274166737   -0.597833757   -2.437179783
   6  H       1.00   -3.666182065    0.883446963    1.679191737
   7  H       1.00   -3.666182065    0.883446963   -1.679191737
   8  H       1.00    2.425633556    1.074800631    2.939355603
   9  H       1.00   -0.022015309   -0.912567643    4.025475693
  10  H       1.00    2.584824085   -2.202834846    2.346227264
  11  H       1.00    2.425633556    1.074800631   -2.939355603
  12  H       1.00   -0.022015309   -0.912567643   -4.025475693
  13  H       1.00    2.584824085   -2.202834846   -2.346227264

 Bond lengths in Bohr (Angstrom)

 1-2  2.091830159  2-3  2.830192527  2-6  2.074092940  2-7  2.074092940  3-4  2.830132841
     ( 1.106948849)     ( 1.497673388)     ( 1.097562717)     ( 1.097562717)     ( 1.497641803)

  3- 5  2.830132841   4- 8  2.091832255   4- 9  2.074085151   4-10  2.074156104   5-11  2.091832255
       ( 1.497641803)       ( 1.106949959)       ( 1.097558596)       ( 1.097596142)       ( 1.106949959)

  5-12  2.074085151   5-13  2.074156104
       ( 1.097558596)       ( 1.097596142)

 Bond angles

  1-2-3  112.17549786   1-2-6  106.35284965   1-2-7  106.35284965   2-3-4  118.89987932

  2-3-5  118.89987932   3-2-6  111.75744418   3-2-7  111.75744418   3-4-8  112.19808176

  3- 4- 9  111.75014522   3- 4-10  111.74379558   3- 5-11  112.19808176   3- 5-12  111.75014522

  3- 5-13  111.74379558   4- 3- 5  118.89276928   6- 2- 7  108.11431090   8- 4- 9  106.34995457

  8- 4-10  106.34572146   9- 4-10  108.12296896  11- 5-12  106.34995457  11- 5-13  106.34572146

 12- 5-13  108.12296896

 NUCLEAR CHARGE:                   33
 NUMBER OF PRIMITIVE AOS:         163
 NUMBER OF SYMMETRY AOS:          159
 NUMBER OF CONTRACTIONS:          101   ( 101A   )
 NUMBER OF CORE ORBITALS:           4   (   4A   )
 NUMBER OF VALENCE ORBITALS:       25   (  25A   )


 NUCLEAR REPULSION ENERGY  124.92676597


 Eigenvalues of metric

         1 0.371E-02 0.424E-02 0.424E-02 0.242E-01 0.242E-01 0.268E-01 0.277E-01 0.371E-01


 Contracted 2-electron integrals neglected if value below      1.0D-11
 AO integral compression algorithm  1   Integral accuracy      1.0D-11

     53.477 MB (compressed) written to integral file ( 46.4%)


 NUMBER OF SORTED TWO-ELECTRON INTEGRALS:   13268976.     BUFFER LENGTH:  32768
 NUMBER OF SEGMENTS:   1  SEGMENT LENGTH:   13268976      RECORD LENGTH: 524288

 Memory used in sort:      13.83 MW

 SORT1 READ    14422061. AND WROTE    12225547. INTEGRALS IN     35 RECORDS. CPU TIME:     0.16 SEC, REAL TIME:     0.33 SEC
 SORT2 READ    12225547. AND WROTE    13268976. INTEGRALS IN    204 RECORDS. CPU TIME:     0.35 SEC, REAL TIME:     0.42 SEC

 FILE SIZES:   FILE 1:    84.0 MBYTE,  FILE 4:   146.8 MBYTE,   TOTAL:    230.9 MBYTE

 OPERATOR DM      FOR CENTER  0  COORDINATES:    0.000000    0.000000    0.000000


 **********************************************************************************************************************************
 DATASETS  * FILE   NREC   LENGTH (MB)   RECORD NAMES
              1      19       77.16       500      610      700      900      950      970     1000      129      960     1100   
                                          VAR    BASINP    GEOM    SYMINP    ZMAT    AOBASIS   BASIS     P2S    ABASIS      S 
                                         1400     1410     1200     1210     1080     1600     1650     1300     1700   
                                           T        V       H0       H01     AOSYM     SMH    MOLCAS    ERIS     OPER   

 PROGRAMS   *        TOTAL       INT
 CPU TIMES  *         2.34      2.20
 REAL TIME  *         3.25 SEC
 DISK USED  *       231.35 MB      
 **********************************************************************************************************************************

 Density functional group M08-SO=XC-M08-SO
 Functional: XC-M08-SO(via MFM 1.6)                                            Gradient terms: 1
 Use grid at  1800.2


 Exact exchange will be calculated, factor:  0.5679

 Functional: XC-M08-SO                 Factor:  1.0000

 Generated new metagrid on record  1800.2 with target accuracy 1.0D-06 and 45406 points in CPU time    1.3
 Computed new grid on record 1800.1 in CPU time    1.4
   84355 words reserved for DFT integration

 PROGRAM * UKS-SCF (Unrestricted Kohn-Sham)     Authors: W. Meyer, H.-J. Werner, P.J. Knowles, 1993

 NUMBER OF ELECTRONS:      17+   16-    SPACE SYMMETRY=1    SPIN SYMMETRY: Doublet 
 CONVERGENCE THRESHOLDS:    1.00E-05 (Density)    1.00E-06 (Energy)
 MAX. NUMBER OF ITERATIONS:       60
 INTERPOLATION TYPE:            DIIS
 INTERPOLATION STEPS:              2 (START)      1 (STEP)
 LEVEL SHIFTS:                 -0.20 (ALPHA)  -0.20 (BETA) 



 Use fine grid record 1800.2 for energy threshold  1.0D-06
 Orbital guess generated from atomic densities. Full valence occupancy:   17

 Molecular orbital dump at record        2200.2

 Initial alpha occupation  17
 Initial beta  occupation  16

 ITERATION    DDIFF          GRAD             ENERGY        2-EL.EN.            DIPOLE MOMENTS         DIIS
    1      0.000D+00      0.000D+00      -157.46144684    379.994013    0.13583    0.27493    0.00000    0
    2      0.741D-02      0.403D-02      -157.55644598    370.963612    0.07068    0.14064    0.00000    1
    3      0.191D-02      0.122D-02      -157.56398792    372.284387    0.06334    0.12601    0.00000    2
    4      0.151D-02      0.475D-03      -157.56673419    372.123347    0.05169    0.10344    0.00000    3
    5      0.616D-03      0.169D-03      -157.56715352    372.092407    0.04604    0.09374    0.00000    4
    6      0.185D-03      0.644D-04      -157.56721796    372.080597    0.04375    0.09024    0.00000    5
    7      0.591D-04      0.206D-04      -157.56722437    372.089425    0.04337    0.08988    0.00000    6
    8      0.209D-04      0.589D-05      -157.56722485    372.088321    0.04304    0.08930    0.00000    7
    9      0.797D-05      0.191D-05      -157.56722492    372.088445    0.04315    0.08955    0.00000    7
   10      0.363D-05      0.796D-06      -157.56722493    372.088505    0.04311    0.08949    0.00000    7

 Final alpha occupancy:  17
 Final beta  occupancy:  16

 !UKS STATE 1.1 Energy               -157.567224930367
 Nuclear energy                       124.92676597
 One-electron energy                 -457.21894186
 Two-electron energy                  186.04425255
 Density functional                   -11.31930159     XC-M08-SO=-11.31930159
 Virial quotient                       -1.01452250
 !UKS STATE 1.1 Dipole moment           0.04311388     0.08948783     0.00000000
 Dipole moment /Debye                   0.10957737     0.22744047     0.00000000

 Orbital energies for positive spin:

         1.1          2.1          3.1          4.1          5.1          6.1          7.1          8.1          9.1         10.1
    -10.517006   -10.504183   -10.504048   -10.504018    -0.891523    -0.773995    -0.773685    -0.608479    -0.520350    -0.513325

        11.1         12.1         13.1         14.1         15.1         16.1         17.1         18.1         19.1
     -0.513299    -0.454532    -0.454399    -0.433840    -0.406348    -0.405872    -0.232820     0.079236     0.130097

 Orbital energies for negative spin:

         1.1          2.1          3.1          4.1          5.1          6.1          7.1          8.1          9.1         10.1
    -10.505458   -10.505302   -10.505281   -10.499673    -0.881575    -0.772440    -0.772401    -0.594779    -0.506578    -0.506172

        11.1         12.1         13.1         14.1         15.1         16.1         17.1         18.1         19.1
     -0.490592    -0.444787    -0.444534    -0.431655    -0.411093    -0.410658     0.017308     0.077060     0.128069

 HOMO     17.1    -0.232820 =      -6.3354eV
 LUMO    -17.1     0.017308 =       0.4710eV
 LUMO-HOMO         0.250128 =       6.8063eV

 EXPECTATION VALUE OF S**2:             0.75625447

 Occupation number threshold for canonical orbitals:  1.999000 (occupied),  0.001000 (virtual)

 Number of pseudo-canonical orbitals per symmetry:   15
 Number of active natural orbitals per symmetry:      3

 Natural orbitals saved to record    2200.2 (Orbital set 3)

 Orbital spaces for UNO-CAS (Min. occupation: 0.020  Max. occupation: 1.980):

 Closed:       16
 Active:        1


 **********************************************************************************************************************************
 DATASETS  * FILE   NREC   LENGTH (MB)   RECORD NAMES
              1      20       78.61       500      610      700      900      950      970     1000      129      960     1100   
                                          VAR    BASINP    GEOM    SYMINP    ZMAT    AOBASIS   BASIS     P2S    ABASIS      S 
                                         1400     1410     1200     1210     1080     1600     1650     1300     1700     1800   
                                           T        V       H0       H01     AOSYM     SMH    MOLCAS    ERIS     OPER     GRID   

              2       5        3.39       700     1000      520     1800     2200   
                                         GEOM     BASIS   MCVARS    GRID      UKS  

 PROGRAMS   *        TOTAL       UKS       INT
 CPU TIMES  *        37.40     35.06      2.20
 REAL TIME  *        38.58 SEC
 DISK USED  *       231.35 MB      
 **********************************************************************************************************************************


 PROGRAM * Intrinsic Basis Bonding Analysis (IBBA)          Author: G. Knizia

 Molecular orbitals read from record     2200.2  Type=UKS/ALPHA (state 1.1)
 Fock matrix read from record            2200.2  Type=UKS/TOTAL (state 1.1)
 Orbital energies read from record       2200.2  Type=UKS/ALPHA (state 1.1)
 Density matrix read from record         2200.2  Type=UKS/CHARGE (state 1.1)

 Number of core orbitals:           4 (   4 )
 Number of closed-shell orbitals:  12 (  12 )
 Number of active  orbitals:        1 (   1 )

 Basis set MINAO-AUTO-PP generated.      Number of basis functions:   29 

 Polarized AO type:                A = (O Ot + (1-O)(1-Ot)) P12
 Orthogonalization method:         Symmetric (Loewdin)
 Localization functional:          L = sum[A,i] <i|n_A|i>^4 -> max

 Localization group 1:  16 orbitals, occupancy  2.000
 Iterative localization: IB/PM,    8 iter; Final gradient 0.30E-08

 Bond order analysis:       [THRPRINT= 0.020]

   CEN ATOM   CEN ATOM     WIBERG.BO      RENORM.BO
     1   H  -   2   C       0.874267       0.995495
     1   H  -   3   C       0.055033       0.166943

     2   C  -   3   C       1.138226       1.302787
     2   C  -   6   H       0.947110       0.986918
     2   C  -   7   H       0.947110       0.986918
     2   C  -   1   H       0.874267       0.995495

     3   C  -   5   C       1.138888       1.304508
     3   C  -   4   C       1.138888       1.304508
     3   C  -   2   C       1.138226       1.302787
     3   C  -  11   H       0.055123       0.167208
     3   C  -   8   H       0.055123       0.167208
     3   C  -   1   H       0.055033       0.166943

     4   C  -   3   C       1.138888       1.304508
     4   C  -   9   H       0.946933       0.986930
     4   C  -  10   H       0.946464       0.987054
     4   C  -   8   H       0.874054       0.995458

     5   C  -   3   C       1.138888       1.304508
     5   C  -  12   H       0.946933       0.986930
     5   C  -  13   H       0.946464       0.987054
     5   C  -  11   H       0.874054       0.995458

     6   H  -   2   C       0.947110       0.986918

     7   H  -   2   C       0.947110       0.986918

     8   H  -   4   C       0.874054       0.995458
     8   H  -   3   C       0.055123       0.167208

     9   H  -   4   C       0.946933       0.986930

    10   H  -   4   C       0.946464       0.987054

    11   H  -   5   C       0.874054       0.995458
    11   H  -   3   C       0.055123       0.167208

    12   H  -   5   C       0.946933       0.986930

    13   H  -   5   C       0.946464       0.987054


 Valency analysis:

   CEN ATOM   TOT.VALENCE
     1   H       0.961911
     2   C       3.950714
     3   C       3.646227
     4   C       3.950496
     5   C       3.950496
     6   H       0.979751
     7   H       0.979751
     8   H       0.961934
     9   H       0.979701
    10   H       0.979365
    11   H       0.961934
    12   H       0.979701
    13   H       0.979365
 Localization group 2:   1 orbitals, occupancy  1.000
 Iterative localization: IB/PM,    1 iter; Final gradient 0.00E+00

 Bond order analysis:       [THRPRINT= 0.020]

   CEN ATOM   CEN ATOM     WIBERG.BO      RENORM.BO
     1   H  -   3   C       0.090284       0.500000


     3   C  -  11   H       0.090728       0.500000
     3   C  -   8   H       0.090728       0.500000
     3   C  -   1   H       0.090284       0.500000





     8   H  -   3   C       0.090728       0.500000



    11   H  -   3   C       0.090728       0.500000




 Valency analysis:

   CEN ATOM   TOT.VALENCE
     1   H       0.118631
     2   C       0.018787
     3   C       0.409387
     4   C       0.018711
     5   C       0.018711
     6   H       0.022316
     7   H       0.022316
     8   H       0.119175
     9   H       0.022395
    10   H       0.022689
    11   H       0.119175
    12   H       0.022395
    13   H       0.022689

 Total charge composition:

   CEN ATOM         s          p       ELECTRONS ->P.CHARGE
     1   H       0.86816                 0.86816    0.13184
     2   C       2.99435    3.34010      6.33445   -0.33445
     3   C       2.99862    3.18048      6.17910   -0.17910
     4   C       2.99438    3.34057      6.33495   -0.33495
     5   C       2.99438    3.34057      6.33495   -0.33495
     6   H       0.86899                 0.86899    0.13101
     7   H       0.86899                 0.86899    0.13101
     8   H       0.86853                 0.86853    0.13147
     9   H       0.86885                 0.86885    0.13115
    10   H       0.86783                 0.86783    0.13217
    11   H       0.86853                 0.86853    0.13147
    12   H       0.86885                 0.86885    0.13115
    13   H       0.86783                 0.86783    0.13217

 Total charge composition, AO contributions:

   CEN ATOM SHL      SPHERICAL COMPONENTS
     1   H  1s       0.86816

     2   C  1s       1.99092
     2   C  2s       1.00343
     2   C  2p       1.07713    1.10138    1.16159

     3   C  1s       1.99246
     3   C  2s       1.00616
     3   C  2p       1.05026    1.09537    1.03485

     4   C  1s       1.99092
     4   C  2s       1.00346
     4   C  2p       1.12697    1.13646    1.07715

     5   C  1s       1.99092
     5   C  2s       1.00346
     5   C  2p       1.12697    1.13646    1.07715

     6   H  1s       0.86899

     7   H  1s       0.86899

     8   H  1s       0.86853

     9   H  1s       0.86885

    10   H  1s       0.86783

    11   H  1s       0.86853

    12   H  1s       0.86885

    13   H  1s       0.86783

 Active orbital charges:

   CEN ATOM         s          p       ELECTRONS ->SPIN.DEN
     1   H       0.06333                 0.06333    0.06333
     2   C       0.00022    0.00926      0.00948    0.00948
     3   C       0.00971    0.70314      0.71285    0.71285
     4   C       0.00022    0.00922      0.00944    0.00944
     5   C       0.00022    0.00922      0.00944    0.00944
     6   H       0.01129                 0.01129    0.01129
     7   H       0.01129                 0.01129    0.01129
     8   H       0.06364                 0.06364    0.06364
     9   H       0.01133                 0.01133    0.01133
    10   H       0.01148                 0.01148    0.01148
    11   H       0.06364                 0.06364    0.06364
    12   H       0.01133                 0.01133    0.01133
    13   H       0.01148                 0.01148    0.01148

 Active orbital charges, AO contributions:

   CEN ATOM SHL      SPHERICAL COMPONENTS
     1   H  1s       0.06333

     2   C  1s       0.00000
     2   C  2s       0.00022
     2   C  2p       0.00033    0.00894    0.00000

     3   C  1s       0.00002
     3   C  2s       0.00969
     3   C  2p       0.13673    0.56641    0.00000

     4   C  1s       0.00000
     4   C  2s       0.00022
     4   C  2p       0.00270    0.00606    0.00046

     5   C  1s       0.00000
     5   C  2s       0.00022
     5   C  2p       0.00270    0.00606    0.00046

     6   H  1s       0.01129

     7   H  1s       0.01129

     8   H  1s       0.06364

     9   H  1s       0.01133

    10   H  1s       0.01148

    11   H  1s       0.06364

    12   H  1s       0.01133

    13   H  1s       0.01148

 Summary of localized orbital composition:   [THRPRINT= 0.020]

   ORB  GRP  ORB.ENERGY      CENTERS/CHARGES
     1   1   -10.408260      C  3   2.000
     2   1   -10.388315      C  2   2.000
     3   1   -10.388164      C  4   2.000
     4   1   -10.388164      C  5   2.000
     5   1    -0.675088      C  3   1.011   C  4   0.976
     6   1    -0.675088      C  3   1.011   C  5   0.976
     7   1    -0.674755      C  3   1.011   C  2   0.976
     8   1    -0.572057      C  2   1.096   H  1   0.796   C  3   0.100
     9   1    -0.571684      C  5   1.095   H 11   0.796   C  3   0.100
    10   1    -0.571684      C  4   1.095   H  8   0.796   C  3   0.100
    11   1    -0.567773      C  2   1.122   H  7   0.850   C  3   0.022
    12   1    -0.567773      C  2   1.122   H  6   0.850   C  3   0.022
    13   1    -0.567663      C  5   1.123   H 13   0.849   C  3   0.022
    14   1    -0.567663      C  4   1.123   H 10   0.849   C  3   0.022
    15   1    -0.567358      C  4   1.122   H  9   0.850   C  3   0.022
    16   1    -0.567358      C  5   1.122   H 12   0.850   C  3   0.022
    17   2    -0.107730      C  3   0.713   H 11   0.064   H  8   0.064   H  1   0.063   (other: 0.097)

 Localized orbitals saved to record      2200.2  (orbital set 4)


 **********************************************************************************************************************************
 DATASETS  * FILE   NREC   LENGTH (MB)   RECORD NAMES
              1      20       78.61       500      610      700      900      950      970     1000      129      960     1100   
                                          VAR    BASINP    GEOM    SYMINP    ZMAT    AOBASIS   BASIS     P2S    ABASIS      S 
                                         1400     1410     1200     1210     1080     1600     1650     1300     1700     1800   
                                           T        V       H0       H01     AOSYM     SMH    MOLCAS    ERIS     OPER     GRID   

              2       5        3.47       700     1000      520     1800     2200   
                                         GEOM     BASIS   MCVARS    GRID      UKS  

 PROGRAMS   *        TOTAL      IBBA       UKS       INT
 CPU TIMES  *        37.43      0.03     35.06      2.20
 REAL TIME  *        38.69 SEC
 DISK USED  *       231.35 MB      
 **********************************************************************************************************************************
 Molecular orbitals read from record     2200.2  Type=UKS/LOCAL(IBO)  
 Occupation numbers read from record     2200.2  Type=UKS/LOCAL(IBO)  
 Orbital energies read from record       2200.2  Type=UKS/LOCAL(IBO)  
 Redundancy group numbers read from rec  2200.2  Type=UKS/BETA (state 1.1)

 IBBA/SVP energy=      0.000000000000

        UKS-SCF 
   -157.56722493
 **********************************************************************************************************************************
 Molpro calculation terminated
