
 Primary working directories    : /local
 Secondary working directories  : /local
 Wavefunction directory         : /local/
 Main file repository           : /local/

 SHA1      : b4a5b34a9e711420743f49e6833241d17c61fb3c
 NAME      : 2099.9.b4a5b34
 ARCHNAME  : linux/x86_64_openmp
 FC        : /cm/shared/languages/GCC-6.1/bin/gfortran
 BLASLIB   : -lblas
 id        : simonbennie

 Nodes     nprocs
 node34-029    1

 Using customized tuning parameters: mindgm=1; mindgv=20; mindgc=4; mindgr=1; noblas=0; minvec=7
 default implementation of scratch files=df  

 memory,500,m
 geomtyp=xyz
 nosym
 noorient
 geometry={
 C         -1.53233        0.02247        0.00000
 C         -0.00192        0.01421        0.00000
 O          0.37239        1.40356        0.00000
 H          1.34248        1.44036        0.00000
 H         -1.92991       -0.99819        0.00000
 H         -1.90797        0.54382       -0.88653
 H         -1.90797        0.54382        0.88653
 C          0.54303       -0.66466       -1.26580
 C          0.54303       -0.66466        1.26580
 H          0.17836       -0.14752       -2.15943
 H          0.17836       -0.14752        2.15943
 H          0.23752       -1.71600       -1.32280
 H          0.23752       -1.71600        1.32280
 H          1.64084       -0.63767       -1.28032
 H          1.64084       -0.63767        1.28032
 }
 basis={ default,tzvp }
 {uks,B-LYP,direct;wf,42,1,0}
 {ibba,bonds=1}

 Variables initialized (895), CPU time= 0.01 sec
 Commands  initialized (725), CPU time= 0.01 sec, 591 directives.
 Default parameters read. Elapsed time= 0.15 sec

 Checking input...
 Passed
1


                                         ***  PROGRAM SYSTEM MOLPRO  ***
                                       Copyright, TTI GmbH Stuttgart, 2015
                                    Version 2099.9 linked May 26 2017 16:03:21


 **********************************************************************************************************************************
 LABEL *                                                                                 
  64 bit serial version                                                                  DATE: 12-Jun-17          TIME: 20:28:01  
 **********************************************************************************************************************************

 SHA1:             b4a5b34a9e711420743f49e6833241d17c61fb3c
 **********************************************************************************************************************************
 SETTING GEOMTYP        =    XYZ

 Variable memory set to  500000000 words,  buffer space 

 ZSYMEL=NOSYM

 SETTING BASIS          =    TZVP


 Recomputing integrals since basis changed


 Using spherical harmonics

 Library entry C      S def2-TZVP            selected for orbital group  1
 Library entry C      P def2-TZVP            selected for orbital group  1
 Library entry C      D def2-TZVP            selected for orbital group  1
 Library entry C      F def2-TZVP            selected for orbital group  1
 Library entry O      S def2-TZVP            selected for orbital group  2
 Library entry O      P def2-TZVP            selected for orbital group  2
 Library entry O      D def2-TZVP            selected for orbital group  2
 Library entry O      F def2-TZVP            selected for orbital group  2
 Library entry H      S def2-TZVP            selected for orbital group  3
 Library entry H      P def2-TZVP            selected for orbital group  3


 PROGRAM * SEWARD (Integral evaluation for generally contracted gaussian basis sets)     Author: Roland Lindh, 1990

 Geometry written to block  1 of record 700


 Point group  C1  



 ATOMIC COORDINATES

 NR  ATOM    CHARGE       X              Y              Z

   1  C       6.00   -2.895684032    0.042462146    0.000000000
   2  C       6.00   -0.003628274    0.026853008    0.000000000
   3  O       8.00    0.703715112    2.652343999    0.000000000
   4  H       1.00    2.536919528    2.721885921    0.000000000
   5  H       1.00   -3.647001345   -1.886305720    0.000000000
   6  H       1.00   -3.605540754    1.027670861   -1.675298901
   7  H       1.00   -3.605540754    1.027670861    1.675298901
   8  C       6.00    1.026177977   -1.256025366   -2.392015328
   9  C       6.00    1.026177977   -1.256025366    2.392015328
  10  H       1.00    0.337051552   -0.278772398   -4.080731285
  11  H       1.00    0.337051552   -0.278772398    4.080731285
  12  H       1.00    0.448847749   -3.242770030   -2.499729718
  13  H       1.00    0.448847749   -3.242770030    2.499729718
  14  H       1.00    3.100738214   -1.205021658   -2.419454152
  15  H       1.00    3.100738214   -1.205021658    2.419454152

 Bond lengths in Bohr (Angstrom)

 1-2  2.892097881  1-5  2.069933136  1-6  2.069096224  1-7  2.069096224  2-3  2.719106031
     ( 1.530432290)     ( 1.095361444)     ( 1.094918569)     ( 1.094918569)     ( 1.438888946)

  2- 8  2.903104402   2- 9  2.903104402   3- 4  1.834522965   8-10  2.069222119   8-12  2.071730422
       ( 1.536256691)       ( 1.536256691)       ( 0.970787746)       ( 1.094985190)       ( 1.096312526)

  8-14  2.075368508   9-11  2.069222119   9-13  2.071730422   9-15  2.075368508
       ( 1.098237719)       ( 1.094985190)       ( 1.096312526)       ( 1.098237719)

 Bond angles

  1-2-3  104.76902697   1-2-8  110.92255387   1-2-9  110.92255387   2-1-5  110.97328220

  2- 1- 6  110.22090701   2- 1- 7  110.22090701   2- 3- 4  107.25071562   2- 8-10  110.21836376

  2- 8-12  111.57747468   2- 8-14  110.77023896   2- 9-11  110.21836376   2- 9-13  111.57747468

  2- 9-15  110.77023896   3- 2- 8  109.53648747   3- 2- 9  109.53648747   5- 1- 6  108.61190457

  5- 1- 7  108.61190457   6- 1- 7  108.12870271   8- 2- 9  110.96453384  10- 8-12  108.52192632

 10- 8-14  108.08997829  11- 9-13  108.52192632  11- 9-15  108.08997829  12- 8-14  107.54424578

 13- 9-15  107.54424578

 NUCLEAR CHARGE:                   42
 NUMBER OF PRIMITIVE AOS:         335
 NUMBER OF SYMMETRY AOS:          310
 NUMBER OF CONTRACTIONS:          215   ( 215A   )
 NUMBER OF CORE ORBITALS:           5   (   5A   )
 NUMBER OF VALENCE ORBITALS:       30   (  30A   )


 NUCLEAR REPULSION ENERGY  198.77359127


 Eigenvalues of metric

         1 0.262E-03 0.510E-03 0.539E-03 0.594E-03 0.697E-03 0.755E-03 0.210E-02 0.239E-02


 Contracted 2-electron integrals neglected if value below      1.0D-11
 AO integral compression algorithm  1   Integral accuracy      1.0D-11

     977.797 MB (compressed) written to integral file ( 41.7%)


 NUMBER OF SORTED TWO-ELECTRON INTEGRALS:  269595810.     BUFFER LENGTH:  32768
 NUMBER OF SEGMENTS:  17  SEGMENT LENGTH:   15999762      RECORD LENGTH: 524288

 Memory used in sort:      16.56 MW

 SORT1 READ   292827432. AND WROTE   238500613. INTEGRALS IN    690 RECORDS. CPU TIME:     3.41 SEC, REAL TIME:     7.18 SEC
 SORT2 READ   238500613. AND WROTE   269595810. INTEGRALS IN   3730 RECORDS. CPU TIME:     5.56 SEC, REAL TIME:     7.16 SEC

 FILE SIZES:   FILE 1:  1009.7 MBYTE,  FILE 4:  2894.1 MBYTE,   TOTAL:   3903.8 MBYTE

 OPERATOR DM      FOR CENTER  0  COORDINATES:    0.000000    0.000000    0.000000


 **********************************************************************************************************************************
 DATASETS  * FILE   NREC   LENGTH (MB)   RECORD NAMES
              1      19      926.27       500      610      700      900      950      970     1000      129      960     1100   
                                          VAR    BASINP    GEOM    SYMINP    ZMAT    AOBASIS   BASIS     P2S    ABASIS      S 
                                         1400     1410     1200     1210     1080     1600     1650     1300     1700   
                                           T        V       H0       H01     AOSYM     SMH    MOLCAS    ERIS     OPER   

 PROGRAMS   *        TOTAL       INT
 CPU TIMES  *        26.15     26.00
 REAL TIME  *        64.09 SEC
 DISK USED  *         3.90 GB      
 **********************************************************************************************************************************

 Density functional group B-LYP=B88+LYP
 Functional: B88(Automatically generated (new) B88)                            Gradient terms: 1
 Functional: LYP(Automatically generated (new) LYP)                            Gradient terms: 1
 Use grid at  1800.2

 Functional: B88                       Factor:  1.0000
 Functional: LYP                       Factor:  1.0000

 Generated new metagrid on record  1800.2 with target accuracy 1.0D-06 and 54596 points in CPU time    1.7
 Computed new grid on record 1800.1 in CPU time    1.9
  175219 words reserved for DFT integration

 PROGRAM * UKS-SCF (Unrestricted Kohn-Sham)     Authors: W. Meyer, H.-J. Werner, P.J. Knowles, 1993

 NUMBER OF ELECTRONS:      21+   21-    SPACE SYMMETRY=1    SPIN SYMMETRY: Singlet 
 CONVERGENCE THRESHOLDS:    1.00E-05 (Density)    1.00E-06 (Energy)
 MAX. NUMBER OF ITERATIONS:       60
 INTERPOLATION TYPE:            DIIS
 INTERPOLATION STEPS:              2 (START)      1 (STEP)
 LEVEL SHIFTS:                 -0.20 (ALPHA)  -0.20 (BETA) 



 Use fine grid record 1800.2 for energy threshold  1.0D-06
 Orbital guess generated from atomic densities. Full valence occupancy:   21

 Molecular orbital dump at record        2200.2

 Initial alpha occupation  21
 Initial beta  occupation  21

 ITERATION    DDIFF          GRAD             ENERGY        2-EL.EN.            DIPOLE MOMENTS         DIIS
    1      0.000D+00      0.000D+00      -233.30278523    641.692579    0.71121   -0.80398    0.00000    0
    2      0.639D-02      0.390D-02      -233.55686798    613.413318    0.17973   -0.41323    0.00000    1
    3      0.219D-02      0.236D-02      -233.64706485    622.392203    0.36771   -0.55987    0.00000    2
    4      0.429D-03      0.327D-03      -233.64881746    622.242155    0.35203   -0.49661    0.00000    3
    5      0.481D-03      0.124D-03      -233.64935804    622.094795    0.34674   -0.49357    0.00000    4
    6      0.444D-03      0.384D-04      -233.64946281    622.055348    0.34377   -0.48251    0.00000    5
    7      0.972D-04      0.135D-04      -233.64946888    622.013830    0.34160   -0.48129    0.00000    6
    8      0.434D-04      0.835D-05      -233.64947087    622.028925    0.34144   -0.48176    0.00000    7
    9      0.140D-04      0.946D-06      -233.64947094    622.028178    0.34147   -0.48139    0.00000    6
   10      0.307D-05      0.289D-06      -233.64947095    622.027792    0.34133   -0.48157    0.00000    7
   11      0.655D-06      0.131D-06      -233.64947095    622.028289    0.34136   -0.48154    0.00000    7

 Final alpha occupancy:  21
 Final beta  occupancy:  21

 !UKS STATE 1.1 Energy               -233.649470947601
 Nuclear energy                       198.77359127
 One-electron energy                 -709.47187088
 Two-electron energy                  311.01414435
 Density functional                   -33.96533569     B88=-32.59091568 LYP= -1.37442000
 Virial quotient                       -1.00363979
 !UKS STATE 1.1 Dipole moment           0.34135919    -0.48154099     0.00000000
 Dipole moment /Debye                   0.86759168    -1.22387495     0.00000000

 Orbital energies for positive spin:

         1.1          2.1          3.1          4.1          5.1          6.1          7.1          8.1          9.1         10.1
    -18.763465    -9.961201    -9.895982    -9.895977    -9.891146    -0.921489    -0.707051    -0.618188    -0.617357    -0.507115

        11.1         12.1         13.1         14.1         15.1         16.1         17.1         18.1         19.1         20.1
     -0.433880    -0.398683    -0.396116    -0.361990    -0.349180    -0.333353    -0.320403    -0.308121    -0.302306    -0.274450

        21.1         22.1         23.1
     -0.221095    -0.001176     0.043432

 Orbital energies for negative spin:

         1.1          2.1          3.1          4.1          5.1          6.1          7.1          8.1          9.1         10.1
    -18.763464    -9.961201    -9.895981    -9.895976    -9.891145    -0.921488    -0.707051    -0.618187    -0.617356    -0.507115

        11.1         12.1         13.1         14.1         15.1         16.1         17.1         18.1         19.1         20.1
     -0.433880    -0.398683    -0.396116    -0.361990    -0.349180    -0.333353    -0.320403    -0.308121    -0.302306    -0.274450

        21.1         22.1         23.1
     -0.221095    -0.001176     0.043431

 HOMO    -21.1    -0.221095 =      -6.0163eV
 LUMO    -22.1    -0.001176 =      -0.0320eV
 LUMO-HOMO         0.219918 =       5.9843eV

 EXPECTATION VALUE OF S**2:             0.00000000

 Occupation number threshold for canonical orbitals:  1.999000 (occupied),  0.001000 (virtual)

 Number of pseudo-canonical orbitals per symmetry:   21
 Number of active natural orbitals per symmetry:      0

 Natural orbitals saved to record    2200.2 (Orbital set 3)

 Orbital spaces for UNO-CAS (Min. occupation: 0.020  Max. occupation: 1.980):

 Closed:       21
 Active:        0


 **********************************************************************************************************************************
 DATASETS  * FILE   NREC   LENGTH (MB)   RECORD NAMES
              1      20      928.02       500      610      700      900      950      970     1000      129      960     1100   
                                          VAR    BASINP    GEOM    SYMINP    ZMAT    AOBASIS   BASIS     P2S    ABASIS      S 
                                         1400     1410     1200     1210     1080     1600     1650     1300     1700     1800   
                                           T        V       H0       H01     AOSYM     SMH    MOLCAS    ERIS     OPER     GRID   

              2       5        4.89       700     1000      520     1800     2200   
                                         GEOM     BASIS   MCVARS    GRID      UKS  

 PROGRAMS   *        TOTAL       UKS       INT
 CPU TIMES  *       100.36     74.21     26.00
 REAL TIME  *       151.90 SEC
 DISK USED  *         3.90 GB      
 **********************************************************************************************************************************


 PROGRAM * Intrinsic Basis Bonding Analysis (IBBA)          Author: G. Knizia

 Molecular orbitals read from record     2200.2  Type=UKS/ALPHA (state 1.1)
 Fock matrix read from record            2200.2  Type=UKS/TOTAL (state 1.1)
 Orbital energies read from record       2200.2  Type=UKS/ALPHA (state 1.1)
 Density matrix read from record         2200.2  Type=UKS/CHARGE (state 1.1)

 Number of core orbitals:           5 (   5 )
 Number of closed-shell orbitals:  16 (  16 )

 Basis set MINAO-AUTO-PP generated.      Number of basis functions:   35 

 Polarized AO type:                A = (O Ot + (1-O)(1-Ot)) P12
 Orthogonalization method:         Symmetric (Loewdin)
 Localization functional:          L = sum[A,i] <i|n_A|i>^4 -> max

 Localization group 1:  21 orbitals, occupancy  2.000
 Iterative localization: IB/PM,    7 iter; Final gradient 0.21E-08

 Bond order analysis:       [THRPRINT= 0.020]

   CEN ATOM   CEN ATOM     WIBERG.BO      RENORM.BO
     1   C  -   2   C       0.995973       0.993807
     1   C  -   5   H       0.962480       0.986150
     1   C  -   6   H       0.957881       0.980134
     1   C  -   7   H       0.957881       0.980134

     2   C  -   1   C       0.995973       0.993807
     2   C  -   9   C       0.994703       0.974572
     2   C  -   8   C       0.994703       0.974572
     2   C  -   3   O       0.935685       0.947718

     3   O  -   2   C       0.935685       0.947718
     3   O  -   4   H       0.864594       0.973405
     3   O  -   8   C       0.030013       0.015346
     3   O  -   9   C       0.030013       0.015346

     4   H  -   3   O       0.864594       0.973405

     5   H  -   1   C       0.962480       0.986150

     6   H  -   1   C       0.957881       0.980134

     7   H  -   1   C       0.957881       0.980134

     8   C  -   2   C       0.994703       0.974572
     8   C  -  14   H       0.961923       0.980943
     8   C  -  10   H       0.958480       0.980003
     8   C  -  12   H       0.957753       0.979106
     8   C  -   3   O       0.030013       0.015346

     9   C  -   2   C       0.994703       0.974572
     9   C  -  15   H       0.961923       0.980943
     9   C  -  11   H       0.958480       0.980003
     9   C  -  13   H       0.957753       0.979106
     9   C  -   3   O       0.030013       0.015346

    10   H  -   8   C       0.958480       0.980003

    11   H  -   9   C       0.958480       0.980003

    12   H  -   8   C       0.957753       0.979106

    13   H  -   9   C       0.957753       0.979106

    14   H  -   8   C       0.961923       0.980943

    15   H  -   9   C       0.961923       0.980943


 Valency analysis:

   CEN ATOM   TOT.VALENCE
     1   C       3.938117
     2   C       3.931727
     3   O       1.933508
     4   H       0.886294
     5   H       0.982293
     6   H       0.979833
     7   H       0.979833
     8   C       3.940735
     9   C       3.940735
    10   H       0.979881
    11   H       0.979881
    12   H       0.981687
    13   H       0.981687
    14   H       0.983883
    15   H       0.983883

 Total charge composition:

   CEN ATOM         s          p       ELECTRONS ->P.CHARGE
     1   C       3.04165    3.36798      6.40963   -0.40963
     2   C       2.93935    2.80724      5.74659    0.25341
     3   O       3.65158    4.90838      8.55995   -0.55995
     4   H       0.66280                 0.66280    0.33720
     5   H       0.86693                 0.86693    0.13307
     6   H       0.85799                 0.85799    0.14201
     7   H       0.85799                 0.85799    0.14201
     8   C       3.04866    3.37452      6.42318   -0.42318
     9   C       3.04866    3.37452      6.42318   -0.42318
    10   H       0.85816                 0.85816    0.14184
    11   H       0.85816                 0.85816    0.14184
    12   H       0.86468                 0.86468    0.13532
    13   H       0.86468                 0.86468    0.13532
    14   H       0.87305                 0.87305    0.12695
    15   H       0.87305                 0.87305    0.12695

 Total charge composition, AO contributions:

   CEN ATOM SHL      SPHERICAL COMPONENTS
     1   C  1s       1.99144
     1   C  2s       1.05021
     1   C  2p       1.03716    1.15901    1.17181

     2   C  1s       1.99304
     2   C  2s       0.94632
     2   C  2p       1.00762    0.78862    1.01099

     3   O  1s       1.99721
     3   O  2s       1.65436
     3   O  2p       1.46679    1.48972    1.95186

     4   H  1s       0.66280

     5   H  1s       0.86693

     6   H  1s       0.85799

     7   H  1s       0.85799

     8   C  1s       1.99154
     8   C  2s       1.05711
     8   C  2p       1.14137    1.14096    1.09219

     9   C  1s       1.99154
     9   C  2s       1.05711
     9   C  2p       1.14137    1.14096    1.09219

    10   H  1s       0.85816

    11   H  1s       0.85816

    12   H  1s       0.86468

    13   H  1s       0.86468

    14   H  1s       0.87305

    15   H  1s       0.87305

 Summary of localized orbital composition:   [THRPRINT= 0.020]

   ORB  GRP  ORB.ENERGY      CENTERS/CHARGES
     1   1   -18.610037      O  3   2.000
     2   1    -9.871740      C  2   2.000
     3   1    -9.784193      C  9   2.000
     4   1    -9.784193      C  8   2.000
     5   1    -9.778593      C  1   2.000
     6   1    -0.690263      O  3   1.340   H  4   0.650
     7   1    -0.649900      O  3   1.283   C  2   0.698
     8   1    -0.513575      C  9   1.007   C  2   0.977
     9   1    -0.513575      C  8   1.007   C  2   0.977
    10   1    -0.513235      C  1   0.990   C  2   0.985   (other: 0.025)
    11   1    -0.503636      O  3   1.980
    12   1    -0.450877      C  9   1.131   H 13   0.854
    13   1    -0.450877      C  8   1.131   H 12   0.854
    14   1    -0.449298      C  8   1.122   H 14   0.865
    15   1    -0.449298      C  9   1.122   H 15   0.865
    16   1    -0.446881      C  1   1.126   H  5   0.859
    17   1    -0.444932      C  9   1.139   H 11   0.850
    18   1    -0.444932      C  8   1.139   H 10   0.850
    19   1    -0.440540      C  1   1.139   H  6   0.850
    20   1    -0.440540      C  1   1.139   H  7   0.850
    21   1    -0.247345      O  3   1.952   (other: 0.048)

 Localized orbitals saved to record      2200.2  (orbital set 4)


 **********************************************************************************************************************************
 DATASETS  * FILE   NREC   LENGTH (MB)   RECORD NAMES
              1      20      928.02       500      610      700      900      950      970     1000      129      960     1100   
                                          VAR    BASINP    GEOM    SYMINP    ZMAT    AOBASIS   BASIS     P2S    ABASIS      S 
                                         1400     1410     1200     1210     1080     1600     1650     1300     1700     1800   
                                           T        V       H0       H01     AOSYM     SMH    MOLCAS    ERIS     OPER     GRID   

              2       5        5.27       700     1000      520     1800     2200   
                                         GEOM     BASIS   MCVARS    GRID      UKS  

 PROGRAMS   *        TOTAL      IBBA       UKS       INT
 CPU TIMES  *       100.43      0.07     74.21     26.00
 REAL TIME  *       152.09 SEC
 DISK USED  *         3.90 GB      
 **********************************************************************************************************************************
 Molecular orbitals read from record     2200.2  Type=UKS/LOCAL(IBO)  
 Occupation numbers read from record     2200.2  Type=UKS/LOCAL(IBO)  
 Orbital energies read from record       2200.2  Type=UKS/LOCAL(IBO)  
 Redundancy group numbers read from rec  2200.2  Type=UKS/BETA (state 1.1)

 IBBA/TZVP energy=      0.000000000000

        UKS-SCF 
   -233.64947095
 **********************************************************************************************************************************
 Molpro calculation terminated
