
 Primary working directories    : /local
 Secondary working directories  : /local
 Wavefunction directory         : /local/
 Main file repository           : /local/

 SHA1      : b4a5b34a9e711420743f49e6833241d17c61fb3c
 NAME      : 2099.9.b4a5b34
 ARCHNAME  : linux/x86_64_openmp
 FC        : /cm/shared/languages/GCC-6.1/bin/gfortran
 BLASLIB   : -lblas
 id        : simonbennie

 Nodes     nprocs
 node32-005    1

 Using customized tuning parameters: mindgm=1; mindgv=20; mindgc=4; mindgr=1; noblas=0; minvec=7
 default implementation of scratch files=df  

 memory,500,m
 geomtyp=xyz
 nosym
 noorient
 geometry={
 C         -1.53233        0.02247        0.00000
 C         -0.00192        0.01421        0.00000
 O          0.37239        1.40356        0.00000
 H          1.34248        1.44036        0.00000
 H         -1.92991       -0.99819        0.00000
 H         -1.90797        0.54382       -0.88653
 H         -1.90797        0.54382        0.88653
 C          0.54303       -0.66466       -1.26580
 C          0.54303       -0.66466        1.26580
 H          0.17836       -0.14752       -2.15943
 H          0.17836       -0.14752        2.15943
 H          0.23752       -1.71600       -1.32280
 H          0.23752       -1.71600        1.32280
 H          1.64084       -0.63767       -1.28032
 H          1.64084       -0.63767        1.28032
 }
 basis={ default,avtz }
 {ks,M06-2X,direct;wf,42,1,0}
 {ibba,bonds=1}

 Variables initialized (895), CPU time= 0.00 sec
 Commands  initialized (725), CPU time= 0.01 sec, 591 directives.
 Default parameters read. Elapsed time= 0.08 sec

 Checking input...
 Passed
1


                                         ***  PROGRAM SYSTEM MOLPRO  ***
                                       Copyright, TTI GmbH Stuttgart, 2015
                                    Version 2099.9 linked May 26 2017 16:03:21


 **********************************************************************************************************************************
 LABEL *                                                                                 
  64 bit serial version                                                                  DATE: 12-Jun-17          TIME: 14:14:44  
 **********************************************************************************************************************************

 SHA1:             b4a5b34a9e711420743f49e6833241d17c61fb3c
 **********************************************************************************************************************************
 SETTING GEOMTYP        =    XYZ

 Variable memory set to  500000000 words,  buffer space 

 ZSYMEL=NOSYM

 SETTING BASIS          =    AVTZ


 Recomputing integrals since basis changed


 Using spherical harmonics

 Library entry C      S aug-cc-pVTZ          selected for orbital group  1
 Library entry C      P aug-cc-pVTZ          selected for orbital group  1
 Library entry C      D aug-cc-pVTZ          selected for orbital group  1
 Library entry C      F aug-cc-pVTZ          selected for orbital group  1
 Library entry O      S aug-cc-pVTZ          selected for orbital group  2
 Library entry O      P aug-cc-pVTZ          selected for orbital group  2
 Library entry O      D aug-cc-pVTZ          selected for orbital group  2
 Library entry O      F aug-cc-pVTZ          selected for orbital group  2
 Library entry H      S aug-cc-pVTZ          selected for orbital group  3
 Library entry H      P aug-cc-pVTZ          selected for orbital group  3
 Library entry H      D aug-cc-pVTZ          selected for orbital group  3


 PROGRAM * SEWARD (Integral evaluation for generally contracted gaussian basis sets)     Author: Roland Lindh, 1990

 Geometry written to block  1 of record 700


 Point group  C1  



 ATOMIC COORDINATES

 NR  ATOM    CHARGE       X              Y              Z

   1  C       6.00   -2.895684032    0.042462146    0.000000000
   2  C       6.00   -0.003628274    0.026853008    0.000000000
   3  O       8.00    0.703715112    2.652343999    0.000000000
   4  H       1.00    2.536919528    2.721885921    0.000000000
   5  H       1.00   -3.647001345   -1.886305720    0.000000000
   6  H       1.00   -3.605540754    1.027670861   -1.675298901
   7  H       1.00   -3.605540754    1.027670861    1.675298901
   8  C       6.00    1.026177977   -1.256025366   -2.392015328
   9  C       6.00    1.026177977   -1.256025366    2.392015328
  10  H       1.00    0.337051552   -0.278772398   -4.080731285
  11  H       1.00    0.337051552   -0.278772398    4.080731285
  12  H       1.00    0.448847749   -3.242770030   -2.499729718
  13  H       1.00    0.448847749   -3.242770030    2.499729718
  14  H       1.00    3.100738214   -1.205021658   -2.419454152
  15  H       1.00    3.100738214   -1.205021658    2.419454152

 Bond lengths in Bohr (Angstrom)

 1-2  2.892097881  1-5  2.069933136  1-6  2.069096224  1-7  2.069096224  2-3  2.719106031
     ( 1.530432290)     ( 1.095361444)     ( 1.094918569)     ( 1.094918569)     ( 1.438888946)

  2- 8  2.903104402   2- 9  2.903104402   3- 4  1.834522965   8-10  2.069222119   8-12  2.071730422
       ( 1.536256691)       ( 1.536256691)       ( 0.970787746)       ( 1.094985190)       ( 1.096312526)

  8-14  2.075368508   9-11  2.069222119   9-13  2.071730422   9-15  2.075368508
       ( 1.098237719)       ( 1.094985190)       ( 1.096312526)       ( 1.098237719)

 Bond angles

  1-2-3  104.76902697   1-2-8  110.92255387   1-2-9  110.92255387   2-1-5  110.97328220

  2- 1- 6  110.22090701   2- 1- 7  110.22090701   2- 3- 4  107.25071562   2- 8-10  110.21836376

  2- 8-12  111.57747468   2- 8-14  110.77023896   2- 9-11  110.21836376   2- 9-13  111.57747468

  2- 9-15  110.77023896   3- 2- 8  109.53648747   3- 2- 9  109.53648747   5- 1- 6  108.61190457

  5- 1- 7  108.61190457   6- 1- 7  108.12870271   8- 2- 9  110.96453384  10- 8-12  108.52192632

 10- 8-14  108.08997829  11- 9-13  108.52192632  11- 9-15  108.08997829  12- 8-14  107.54424578

 13- 9-15  107.54424578

 NUCLEAR CHARGE:                   42
 NUMBER OF PRIMITIVE AOS:         605
 NUMBER OF SYMMETRY AOS:          540
 NUMBER OF CONTRACTIONS:          460   ( 460A   )
 NUMBER OF CORE ORBITALS:           5   (   5A   )
 NUMBER OF VALENCE ORBITALS:       30   (  30A   )


 NUCLEAR REPULSION ENERGY  198.77359127


 Eigenvalues of metric

         1 0.351E-05 0.596E-05 0.770E-05 0.977E-05 0.161E-04 0.173E-04 0.207E-04 0.297E-04


 Contracted 2-electron integrals neglected if value below      1.0D-12
 AO integral compression algorithm  1   Integral accuracy      1.0D-12

     24892.932 MB (compressed) written to integral file ( 51.7%)


 NUMBER OF SORTED TWO-ELECTRON INTEGRALS: 5621233465.     BUFFER LENGTH:  32768
 NUMBER OF SEGMENTS: 176  SEGMENT LENGTH:   31999951      RECORD LENGTH: 131072

 Memory used in sort:      32.16 MW

 SORT1 READ  6020115514. AND WROTE  5366777799. INTEGRALS IN  61513 RECORDS. CPU TIME:    83.98 SEC, REAL TIME:   872.76 SEC
 SORT2 READ  5366777799. AND WROTE  5621233465. INTEGRALS IN  94959 RECORDS. CPU TIME:   144.68 SEC, REAL TIME:  1396.28 SEC

 FILE SIZES:   FILE 1: 24930.9 MBYTE,  FILE 4: 64501.1 MBYTE,   TOTAL:  89432.0 MBYTE

 OPERATOR DM      FOR CENTER  0  COORDINATES:    0.000000    0.000000    0.000000


 **********************************************************************************************************************************
 DATASETS  * FILE   NREC   LENGTH (MB)   RECORD NAMES
              1      19    23757.53       500      610      700      900      950      970     1000      129      960     1100   
                                          VAR    BASINP    GEOM    SYMINP    ZMAT    AOBASIS   BASIS     P2S    ABASIS      S 
                                         1400     1410     1200     1210     1080     1600     1650     1300     1700   
                                           T        V       H0       H01     AOSYM     SMH    MOLCAS    ERIS     OPER   

 PROGRAMS   *        TOTAL       INT
 CPU TIMES  *       448.09    447.96
 REAL TIME  *      2606.85 SEC
 DISK USED  *        89.43 GB      
 **********************************************************************************************************************************

 Density functional group M06-2X=XC-M06-2X
 Functional: XC-M06-2X(via MFM 1.6)                                            Gradient terms: 1
 Use grid at  1800.2


 Exact exchange will be calculated, factor:  0.5400

 Functional: XC-M06-2X                 Factor:  1.0000

 Generated new metagrid on record  1800.2 with target accuracy 1.0D-06 and 55396 points in CPU time    1.7
 Computed new grid on record 1800.1 in CPU time    1.8
  370324 words reserved for DFT integration

 PROGRAM * RKS-SCF (Restricted closed shell Kohn-Sham)     Authors: W. Meyer, H.-J. Werner, P.J. Knowles, 1993

 NUMBER OF ELECTRONS:      21+   21-    SPACE SYMMETRY=1    SPIN SYMMETRY: Singlet 
 CONVERGENCE THRESHOLDS:    1.00E-05 (Density)    1.00E-06 (Energy)
 MAX. NUMBER OF ITERATIONS:       60
 INTERPOLATION TYPE:            DIIS
 INTERPOLATION STEPS:              2 (START)      1 (STEP)
 LEVEL SHIFTS:                  0.00 (CLOSED)  0.00 (OPEN) 



 Use fine grid record 1800.2 for energy threshold  1.0D-06
 Orbital guess generated from atomic densities. Full valence occupancy:   35

 Molecular orbital dump at record        2100.2

 Initial occupancy:  21

 ITERATION    DDIFF          GRAD             ENERGY        2-EL.EN.            DIPOLE MOMENTS         DIIS   ORB.
    1      0.000D+00      0.000D+00      -233.52377958    596.408858    0.70109   -0.84227    0.00000    0    start
    2      0.000D+00      0.379D-02      -233.55026315    576.659798    0.02167   -0.29685    0.00000    1    diag
    3      0.799D-02      0.367D-02      -233.65413597    586.822129    0.35148   -0.59219    0.00000    2    diag
    4      0.317D-02      0.423D-03      -233.65506113    586.452098    0.33768   -0.52029    0.00000    3    diag
    5      0.596D-03      0.202D-03      -233.65535330    586.436805    0.33955   -0.56144    0.00000    4    diag
    6      0.386D-03      0.342D-04      -233.65536184    586.502019    0.33941   -0.55397    0.00000    5    diag
    7      0.518D-04      0.136D-04      -233.65536334    586.480063    0.33913   -0.55383    0.00000    6    diag
    8      0.163D-04      0.228D-05      -233.65536339    586.483504    0.33926   -0.55445    0.00000    7    diag
    9      0.457D-05      0.329D-06      -233.65536339    586.483096    0.33923   -0.55425    0.00000    0    orth

 Final occupancy:  21

 !RKS STATE 1.1 Energy               -233.655363386169
 Nuclear energy                       198.77359127
 One-electron energy                 -709.28877622
 Two-electron energy                  293.24154806
 SCF exchange energy                  -32.49740014     Factor= 0.5400
 Density functional                   -16.38172651     XC-M06-2X=-16.38172651
 Virial quotient                       -1.00630302
 !RKS STATE 1.1 Dipole moment           0.33922838    -0.55424852     0.00000000
 Dipole moment /Debye                   0.86217606    -1.40866696     0.00000000

 Orbital energies:

         1.1          2.1          3.1          4.1          5.1          6.1          7.1          8.1          9.1         10.1
    -19.619609   -10.598418   -10.528714   -10.528705   -10.523381    -1.140003    -0.888109    -0.784366    -0.783270    -0.650100

        11.1         12.1         13.1         14.1         15.1         16.1         17.1         18.1         19.1         20.1
     -0.564352    -0.525143    -0.521726    -0.482215    -0.465418    -0.444214    -0.430140    -0.423107    -0.414455    -0.382700

        21.1         22.1         23.1
     -0.346132    -0.008026     0.008447

 HOMO     21.1    -0.346132 =      -9.4187eV
 LUMO     22.1    -0.008026 =      -0.2184eV
 LUMO-HOMO         0.338106 =       9.2003eV


 **********************************************************************************************************************************
 DATASETS  * FILE   NREC   LENGTH (MB)   RECORD NAMES
              1      20    23759.30       500      610      700      900      950      970     1000      129      960     1100   
                                          VAR    BASINP    GEOM    SYMINP    ZMAT    AOBASIS   BASIS     P2S    ABASIS      S 
                                         1400     1410     1200     1210     1080     1600     1650     1300     1700     1800   
                                           T        V       H0       H01     AOSYM     SMH    MOLCAS    ERIS     OPER     GRID   

              2       5        7.31       700     1000      520     1800     2100   
                                         GEOM     BASIS   MCVARS    GRID      RKS  

 PROGRAMS   *        TOTAL        KS       INT
 CPU TIMES  *      1670.51   1222.42    447.96
 REAL TIME  *      3945.32 SEC
 DISK USED  *        89.43 GB      
 **********************************************************************************************************************************


 PROGRAM * Intrinsic Basis Bonding Analysis (IBBA)          Author: G. Knizia

 Molecular orbitals read from record     2100.2  Type=RKS/CANONICAL (state 1.1)
 Fock matrix read from record            2100.2  Type=RKS/TOTAL (state 1.1)
 Orbital energies read from record       2100.2  Type=RKS/CANONICAL (state 1.1)
 Density matrix read from record         2100.2  Type=RKS/CHARGE (state 1.1)

 Number of core orbitals:           5 (   5 )
 Number of closed-shell orbitals:  16 (  16 )

 Basis set MINAO-AUTO-PP generated.      Number of basis functions:   35 

 Polarized AO type:                A = (O Ot + (1-O)(1-Ot)) P12
 Orthogonalization method:         Symmetric (Loewdin)
 Localization functional:          L = sum[A,i] <i|n_A|i>^4 -> max

 Localization group 1:  21 orbitals, occupancy  2.000
 Iterative localization: IB/PM,    7 iter; Final gradient 0.21E-08

 Bond order analysis:       [THRPRINT= 0.020]

   CEN ATOM   CEN ATOM     WIBERG.BO      RENORM.BO
     1   C  -   2   C       0.996185       0.993285
     1   C  -   5   H       0.964353       0.988000
     1   C  -   6   H       0.959623       0.982897
     1   C  -   7   H       0.959623       0.982897

     2   C  -   1   C       0.996185       0.993285
     2   C  -   9   C       0.995163       0.976985
     2   C  -   8   C       0.995163       0.976985
     2   C  -   3   O       0.931699       0.952992

     3   O  -   2   C       0.931699       0.952992
     3   O  -   4   H       0.860782       0.978011
     3   O  -   9   C       0.025471       0.013062
     3   O  -   8   C       0.025471       0.013062

     4   H  -   3   O       0.860782       0.978011

     5   H  -   1   C       0.964353       0.988000

     6   H  -   1   C       0.959623       0.982897

     7   H  -   1   C       0.959623       0.982897

     8   C  -   2   C       0.995163       0.976985
     8   C  -  14   H       0.963818       0.983514
     8   C  -  12   H       0.960794       0.983914
     8   C  -  10   H       0.959947       0.982747
     8   C  -   3   O       0.025471       0.013062

     9   C  -   2   C       0.995163       0.976985
     9   C  -  15   H       0.963818       0.983514
     9   C  -  13   H       0.960794       0.983914
     9   C  -  11   H       0.959947       0.982747
     9   C  -   3   O       0.025471       0.013062

    10   H  -   8   C       0.959947       0.982747

    11   H  -   9   C       0.959947       0.982747

    12   H  -   8   C       0.960794       0.983914

    13   H  -   9   C       0.960794       0.983914

    14   H  -   8   C       0.963818       0.983514

    15   H  -   9   C       0.963818       0.983514


 Valency analysis:

   CEN ATOM   TOT.VALENCE
     1   C       3.936060
     2   C       3.928212
     3   O       1.904151
     4   H       0.879119
     5   H       0.981971
     6   H       0.979322
     7   H       0.979322
     8   C       3.938645
     9   C       3.938645
    10   H       0.979228
    11   H       0.979228
    12   H       0.981051
    13   H       0.981051
    14   H       0.983468
    15   H       0.983468

 Total charge composition:

   CEN ATOM         s          p       ELECTRONS ->P.CHARGE
     1   C       3.03776    3.37504      6.41279   -0.41279
     2   C       2.93809    2.80188      5.73998    0.26002
     3   O       3.64383    4.93962      8.58346   -0.58346
     4   H       0.65232                 0.65232    0.34768
     5   H       0.86573                 0.86573    0.13427
     6   H       0.85620                 0.85620    0.14380
     7   H       0.85620                 0.85620    0.14380
     8   C       3.04366    3.38335      6.42702   -0.42702
     9   C       3.04366    3.38335      6.42702   -0.42702
    10   H       0.85588                 0.85588    0.14412
    11   H       0.85588                 0.85588    0.14412
    12   H       0.86235                 0.86235    0.13765
    13   H       0.86235                 0.86235    0.13765
    14   H       0.87142                 0.87142    0.12858
    15   H       0.87142                 0.87142    0.12858

 Total charge composition, AO contributions:

   CEN ATOM SHL      SPHERICAL COMPONENTS
     1   C  1s       1.99069
     1   C  2s       1.04707
     1   C  2p       1.03831    1.16248    1.17425

     2   C  1s       1.99237
     2   C  2s       0.94573
     2   C  2p       1.00837    0.78412    1.00939

     3   O  1s       1.99698
     3   O  2s       1.64685
     3   O  2p       1.48098    1.49819    1.96046

     4   H  1s       0.65232

     5   H  1s       0.86573

     6   H  1s       0.85620

     7   H  1s       0.85620

     8   C  1s       1.99079
     8   C  2s       1.05287
     8   C  2p       1.14421    1.14426    1.09488

     9   C  1s       1.99079
     9   C  2s       1.05287
     9   C  2p       1.14421    1.14426    1.09488

    10   H  1s       0.85588

    11   H  1s       0.85588

    12   H  1s       0.86235

    13   H  1s       0.86235

    14   H  1s       0.87142

    15   H  1s       0.87142

 Summary of localized orbital composition:   [THRPRINT= 0.020]

   ORB  GRP  ORB.ENERGY      CENTERS/CHARGES
     1   1   -19.451654      O  3   2.000
     2   1   -10.503319      C  2   2.000
     3   1   -10.410003      C  8   2.000
     4   1   -10.410003      C  9   2.000
     5   1   -10.403841      C  1   2.000
     6   1    -0.855765      O  3   1.349   H  4   0.642
     7   1    -0.811019      O  3   1.287   C  2   0.696
     8   1    -0.679726      O  3   1.983
     9   1    -0.650775      C  9   1.007   C  2   0.978
    10   1    -0.650775      C  8   1.007   C  2   0.978
    11   1    -0.650418      C  2   0.989   C  1   0.989   (other: 0.022)
    12   1    -0.579601      C  8   1.133   H 12   0.854
    13   1    -0.579601      C  9   1.133   H 13   0.854
    14   1    -0.577546      C  9   1.124   H 15   0.865
    15   1    -0.577546      C  8   1.124   H 14   0.865
    16   1    -0.575643      C  1   1.128   H  5   0.859
    17   1    -0.573685      C  8   1.142   H 10   0.848
    18   1    -0.573685      C  9   1.142   H 11   0.848
    19   1    -0.568718      C  1   1.141   H  7   0.849
    20   1    -0.568718      C  1   1.141   H  6   0.849
    21   1    -0.392235      O  3   1.960   (other: 0.040)

 Localized orbitals saved to record      2100.2  (orbital set 2)


 **********************************************************************************************************************************
 DATASETS  * FILE   NREC   LENGTH (MB)   RECORD NAMES
              1      20    23759.30       500      610      700      900      950      970     1000      129      960     1100   
                                          VAR    BASINP    GEOM    SYMINP    ZMAT    AOBASIS   BASIS     P2S    ABASIS      S 
                                         1400     1410     1200     1210     1080     1600     1650     1300     1700     1800   
                                           T        V       H0       H01     AOSYM     SMH    MOLCAS    ERIS     OPER     GRID   

              2       5        9.01       700     1000      520     1800     2100   
                                         GEOM     BASIS   MCVARS    GRID      RKS  

 PROGRAMS   *        TOTAL      IBBA        KS       INT
 CPU TIMES  *      1670.79      0.27   1222.42    447.96
 REAL TIME  *      3945.80 SEC
 DISK USED  *        89.43 GB      
 **********************************************************************************************************************************
 Molecular orbitals read from record     2100.2  Type=RKS/LOCAL(IBO)  
 Occupation numbers read from record     2100.2  Type=RKS/LOCAL(IBO)  
 Orbital energies read from record       2100.2  Type=RKS/LOCAL(IBO)  
 Redundancy group numbers read from rec  2100.2  Type=RKS/LOCAL(IBO)  

 IBBA/aug-cc-pVTZ energy=      0.000000000000

        KS-SCF  
   -233.65536339
 **********************************************************************************************************************************
 Molpro calculation terminated
