
 Primary working directories    : /tmp/sb13343
 Secondary working directories  : /tmp/sb13343
 Wavefunction directory         : /panfs/panasas01/chem/sb13343/wfu/
 Main file repository           : /tmp/sb13343/

 SHA1      : b4a5b34a9e711420743f49e6833241d17c61fb3c
 NAME      : 2099.9.b4a5b34
 ARCHNAME  : linux/x86_64_openmp
 FC        : /cm/shared/languages/GCC-6.1/bin/gfortran
 BLASLIB   : -lblas
 id        : simonbennie

 Nodes     nprocs
 node35-048    1

 Using customized tuning parameters: mindgm=1; mindgv=20; mindgc=4; mindgr=1; noblas=0; minvec=7
 default implementation of scratch files=df  

 memory,500,m
 geomtyp=xyz
 nosym
 noorient
 geometry={
 C         -1.53233        0.02247        0.00000
 C         -0.00192        0.01421        0.00000
 O          0.37239        1.40356        0.00000
 H          1.34248        1.44036        0.00000
 H         -1.92991       -0.99819        0.00000
 H         -1.90797        0.54382       -0.88653
 H         -1.90797        0.54382        0.88653
 C          0.54303       -0.66466       -1.26580
 C          0.54303       -0.66466        1.26580
 H          0.17836       -0.14752       -2.15943
 H          0.17836       -0.14752        2.15943
 H          0.23752       -1.71600       -1.32280
 H          0.23752       -1.71600        1.32280
 H          1.64084       -0.63767       -1.28032
 H          1.64084       -0.63767        1.28032
 }
 basis={ default,svp }
 {ks,SOGGA,direct;wf,42,1,0}
 {ibba,bonds=1}

 Variables initialized (895), CPU time= 0.00 sec
 Commands  initialized (725), CPU time= 0.02 sec, 591 directives.
 Default parameters read. Elapsed time= 0.15 sec

 Checking input...
 Passed
1


                                         ***  PROGRAM SYSTEM MOLPRO  ***
                                       Copyright, TTI GmbH Stuttgart, 2015
                                    Version 2099.9 linked May 26 2017 16:03:21


 **********************************************************************************************************************************
 LABEL *                                                                                 
  64 bit serial version                                                                  DATE: 09-Jun-17          TIME: 03:47:11  
 **********************************************************************************************************************************

 SHA1:             b4a5b34a9e711420743f49e6833241d17c61fb3c
 **********************************************************************************************************************************
 SETTING GEOMTYP        =    XYZ

 Variable memory set to  500000000 words,  buffer space 

 ZSYMEL=NOSYM

 SETTING BASIS          =    SVP


 Recomputing integrals since basis changed


 Using spherical harmonics

 Library entry C      S def2-SVP             selected for orbital group  1
 Library entry C      P def2-SVP             selected for orbital group  1
 Library entry C      D def2-SVP             selected for orbital group  1
 Library entry O      S def2-SVP             selected for orbital group  2
 Library entry O      P def2-SVP             selected for orbital group  2
 Library entry O      D def2-SVP             selected for orbital group  2
 Library entry H      S def2-SVP             selected for orbital group  3
 Library entry H      P def2-SVP             selected for orbital group  3


 PROGRAM * SEWARD (Integral evaluation for generally contracted gaussian basis sets)     Author: Roland Lindh, 1990

 Geometry written to block  1 of record 700


 Point group  C1  



 ATOMIC COORDINATES

 NR  ATOM    CHARGE       X              Y              Z

   1  C       6.00   -2.895684032    0.042462146    0.000000000
   2  C       6.00   -0.003628274    0.026853008    0.000000000
   3  O       8.00    0.703715112    2.652343999    0.000000000
   4  H       1.00    2.536919528    2.721885921    0.000000000
   5  H       1.00   -3.647001345   -1.886305720    0.000000000
   6  H       1.00   -3.605540754    1.027670861   -1.675298901
   7  H       1.00   -3.605540754    1.027670861    1.675298901
   8  C       6.00    1.026177977   -1.256025366   -2.392015328
   9  C       6.00    1.026177977   -1.256025366    2.392015328
  10  H       1.00    0.337051552   -0.278772398   -4.080731285
  11  H       1.00    0.337051552   -0.278772398    4.080731285
  12  H       1.00    0.448847749   -3.242770030   -2.499729718
  13  H       1.00    0.448847749   -3.242770030    2.499729718
  14  H       1.00    3.100738214   -1.205021658   -2.419454152
  15  H       1.00    3.100738214   -1.205021658    2.419454152

 Bond lengths in Bohr (Angstrom)

 1-2  2.892097881  1-5  2.069933136  1-6  2.069096224  1-7  2.069096224  2-3  2.719106031
     ( 1.530432290)     ( 1.095361444)     ( 1.094918569)     ( 1.094918569)     ( 1.438888946)

  2- 8  2.903104402   2- 9  2.903104402   3- 4  1.834522965   8-10  2.069222119   8-12  2.071730422
       ( 1.536256691)       ( 1.536256691)       ( 0.970787746)       ( 1.094985190)       ( 1.096312526)

  8-14  2.075368508   9-11  2.069222119   9-13  2.071730422   9-15  2.075368508
       ( 1.098237719)       ( 1.094985190)       ( 1.096312526)       ( 1.098237719)

 Bond angles

  1-2-3  104.76902697   1-2-8  110.92255387   1-2-9  110.92255387   2-1-5  110.97328220

  2- 1- 6  110.22090701   2- 1- 7  110.22090701   2- 3- 4  107.25071562   2- 8-10  110.21836376

  2- 8-12  111.57747468   2- 8-14  110.77023896   2- 9-11  110.21836376   2- 9-13  111.57747468

  2- 9-15  110.77023896   3- 2- 8  109.53648747   3- 2- 9  109.53648747   5- 1- 6  108.61190457

  5- 1- 7  108.61190457   6- 1- 7  108.12870271   8- 2- 9  110.96453384  10- 8-12  108.52192632

 10- 8-14  108.08997829  11- 9-13  108.52192632  11- 9-15  108.08997829  12- 8-14  107.54424578

 13- 9-15  107.54424578

 NUCLEAR CHARGE:                   42
 NUMBER OF PRIMITIVE AOS:         195
 NUMBER OF SYMMETRY AOS:          190
 NUMBER OF CONTRACTIONS:          120   ( 120A   )
 NUMBER OF CORE ORBITALS:           5   (   5A   )
 NUMBER OF VALENCE ORBITALS:       30   (  30A   )


 NUCLEAR REPULSION ENERGY  198.77359127


 Eigenvalues of metric

         1 0.176E-02 0.546E-02 0.548E-02 0.123E-01 0.248E-01 0.256E-01 0.256E-01 0.275E-01


 Contracted 2-electron integrals neglected if value below      1.0D-11
 AO integral compression algorithm  1   Integral accuracy      1.0D-11

     101.974 MB (compressed) written to integral file ( 44.9%)


 NUMBER OF SORTED TWO-ELECTRON INTEGRALS:   26357430.     BUFFER LENGTH:  32768
 NUMBER OF SEGMENTS:   2  SEGMENT LENGTH:   15997996      RECORD LENGTH: 524288

 Memory used in sort:      16.56 MW

 SORT1 READ    28411733. AND WROTE    24096425. INTEGRALS IN     70 RECORDS. CPU TIME:     0.38 SEC, REAL TIME:     1.14 SEC
 SORT2 READ    24096425. AND WROTE    26357430. INTEGRALS IN    389 RECORDS. CPU TIME:     0.66 SEC, REAL TIME:     1.23 SEC

 FILE SIZES:   FILE 1:   132.7 MBYTE,  FILE 4:   293.6 MBYTE,   TOTAL:    426.4 MBYTE

 OPERATOR DM      FOR CENTER  0  COORDINATES:    0.000000    0.000000    0.000000


 **********************************************************************************************************************************
 DATASETS  * FILE   NREC   LENGTH (MB)   RECORD NAMES
              1      19      120.44       500      610      700      900      950      970     1000      129      960     1100   
                                          VAR    BASINP    GEOM    SYMINP    ZMAT    AOBASIS   BASIS     P2S    ABASIS      S 
                                         1400     1410     1200     1210     1080     1600     1650     1300     1700   
                                           T        V       H0       H01     AOSYM     SMH    MOLCAS    ERIS     OPER   

 PROGRAMS   *        TOTAL       INT
 CPU TIMES  *         4.12      3.98
 REAL TIME  *         7.20 SEC
 DISK USED  *       426.89 MB      
 **********************************************************************************************************************************

 Density functional group SOGGA=XC-SOGGA
 Functional: XC-SOGGA(via MFM 1.6)                                             Gradient terms: 1
 Use grid at  1800.2

 Functional: XC-SOGGA                  Factor:  1.0000

 Generated new metagrid on record  1800.2 with target accuracy 1.0D-06 and 53396 points in CPU time    1.6
 Computed new grid on record 1800.1 in CPU time    1.8
   99539 words reserved for DFT integration

 PROGRAM * RKS-SCF (Restricted closed shell Kohn-Sham)     Authors: W. Meyer, H.-J. Werner, P.J. Knowles, 1993

 NUMBER OF ELECTRONS:      21+   21-    SPACE SYMMETRY=1    SPIN SYMMETRY: Singlet 
 CONVERGENCE THRESHOLDS:    1.00E-05 (Density)    1.00E-06 (Energy)
 MAX. NUMBER OF ITERATIONS:       60
 INTERPOLATION TYPE:            DIIS
 INTERPOLATION STEPS:              2 (START)      1 (STEP)
 LEVEL SHIFTS:                  0.00 (CLOSED)  0.00 (OPEN) 



 Use fine grid record 1800.2 for energy threshold  1.0D-06
 Orbital guess generated from atomic densities. Full valence occupancy:   21

 Molecular orbital dump at record        2100.2

 Initial occupancy:  21

 ITERATION    DDIFF          GRAD             ENERGY        2-EL.EN.            DIPOLE MOMENTS         DIIS   ORB.
    1      0.000D+00      0.000D+00      -231.73049191    638.783895    0.71016   -0.78693    0.00000    0    start
    2      0.000D+00      0.113D-01      -231.34279687    594.231872   -0.33505    0.35089    0.00000    1    diag
    3      0.317D-01      0.172D-01      -232.00947029    622.676852    0.42781   -0.55897    0.00000    2    diag
    4      0.230D-01      0.145D-02      -232.01227110    621.304259    0.36042   -0.35536    0.00000    3    diag
    5      0.198D-02      0.768D-03      -232.01331626    621.381507    0.36482   -0.44432    0.00000    4    diag
    6      0.731D-03      0.162D-03      -232.01335085    621.445233    0.36804   -0.42432    0.00000    5    diag
    7      0.192D-03      0.796D-04      -232.01336167    621.424923    0.36886   -0.42715    0.00000    6    diag
    8      0.605D-04      0.739D-05      -232.01336179    621.433203    0.36818   -0.42899    0.00000    7    diag
    9      0.107D-04      0.215D-05      -232.01336180    621.432945    0.36845   -0.42839    0.00000    8    diag
   10      0.276D-05      0.372D-06      -232.01336180    621.432464    0.36846   -0.42840    0.00000    0    orth

 Final occupancy:  21

 !RKS STATE 1.1 Energy               -232.013361796590
 Nuclear energy                       198.77359127
 One-electron energy                 -709.04981063
 Two-electron energy                  310.71623214
 Density functional                   -32.45337457     XC-SOGGA=-32.45337457
 Virial quotient                       -1.00745907
 !RKS STATE 1.1 Dipole moment           0.36846275    -0.42839611     0.00000000
 Dipole moment /Debye                   0.93647756    -1.08880298     0.00000000

 Orbital energies:

         1.1          2.1          3.1          4.1          5.1          6.1          7.1          8.1          9.1         10.1
    -18.661093    -9.882708    -9.818754    -9.818727    -9.813384    -0.903333    -0.698129    -0.608875    -0.608121    -0.498892

        11.1         12.1         13.1         14.1         15.1         16.1         17.1         18.1         19.1         20.1
     -0.428622    -0.393905    -0.392328    -0.353280    -0.341520    -0.324609    -0.311248    -0.299099    -0.294204    -0.263364

        21.1         22.1         23.1
     -0.206867     0.025196     0.073017

 HOMO     21.1    -0.206867 =      -5.6291eV
 LUMO     22.1     0.025196 =       0.6856eV
 LUMO-HOMO         0.232063 =       6.3148eV


 **********************************************************************************************************************************
 DATASETS  * FILE   NREC   LENGTH (MB)   RECORD NAMES
              1      20      122.15       500      610      700      900      950      970     1000      129      960     1100   
                                          VAR    BASINP    GEOM    SYMINP    ZMAT    AOBASIS   BASIS     P2S    ABASIS      S 
                                         1400     1410     1200     1210     1080     1600     1650     1300     1700     1800   
                                           T        V       H0       H01     AOSYM     SMH    MOLCAS    ERIS     OPER     GRID   

              2       5        3.30       700     1000      520     1800     2100   
                                         GEOM     BASIS   MCVARS    GRID      RKS  

 PROGRAMS   *        TOTAL        KS       INT
 CPU TIMES  *        18.96     14.84      3.98
 REAL TIME  *        25.05 SEC
 DISK USED  *       426.89 MB      
 **********************************************************************************************************************************


 PROGRAM * Intrinsic Basis Bonding Analysis (IBBA)          Author: G. Knizia

 Molecular orbitals read from record     2100.2  Type=RKS/CANONICAL (state 1.1)
 Fock matrix read from record            2100.2  Type=RKS/TOTAL (state 1.1)
 Orbital energies read from record       2100.2  Type=RKS/CANONICAL (state 1.1)
 Density matrix read from record         2100.2  Type=RKS/CHARGE (state 1.1)

 Number of core orbitals:           5 (   5 )
 Number of closed-shell orbitals:  16 (  16 )

 Basis set MINAO-AUTO-PP generated.      Number of basis functions:   35 

 Polarized AO type:                A = (O Ot + (1-O)(1-Ot)) P12
 Orthogonalization method:         Symmetric (Loewdin)
 Localization functional:          L = sum[A,i] <i|n_A|i>^4 -> max

 Localization group 1:  21 orbitals, occupancy  2.000
 Iterative localization: IB/PM,    7 iter; Final gradient 0.62E-08

 Bond order analysis:       [THRPRINT= 0.020]

   CEN ATOM   CEN ATOM     WIBERG.BO      RENORM.BO
     1   C  -   2   C       0.994243       0.990499
     1   C  -   5   H       0.959215       0.985777
     1   C  -   6   H       0.954337       0.979721
     1   C  -   7   H       0.954337       0.979721

     2   C  -   1   C       0.994243       0.990499
     2   C  -   9   C       0.993021       0.970982
     2   C  -   8   C       0.993021       0.970982
     2   C  -   3   O       0.947745       0.945735

     3   O  -   2   C       0.947745       0.945735
     3   O  -   4   H       0.869859       0.974007
     3   O  -   8   C       0.031574       0.016232
     3   O  -   9   C       0.031574       0.016232

     4   H  -   3   O       0.869859       0.974007

     5   H  -   1   C       0.959215       0.985777

     6   H  -   1   C       0.954337       0.979721

     7   H  -   1   C       0.954337       0.979721

     8   C  -   2   C       0.993021       0.970982
     8   C  -  14   H       0.958611       0.980484
     8   C  -  10   H       0.954985       0.979507
     8   C  -  12   H       0.954345       0.979082
     8   C  -   3   O       0.031574       0.016232

     9   C  -   2   C       0.993021       0.970982
     9   C  -  15   H       0.958611       0.980484
     9   C  -  11   H       0.954985       0.979507
     9   C  -  13   H       0.954345       0.979082
     9   C  -   3   O       0.031574       0.016232

    10   H  -   8   C       0.954985       0.979507

    11   H  -   9   C       0.954985       0.979507

    12   H  -   8   C       0.954345       0.979082

    13   H  -   9   C       0.954345       0.979082

    14   H  -   8   C       0.958611       0.980484

    15   H  -   9   C       0.958611       0.980484


 Valency analysis:

   CEN ATOM   TOT.VALENCE
     1   C       3.929690
     2   C       3.941240
     3   O       1.957321
     4   H       0.891058
     5   H       0.980582
     6   H       0.978134
     7   H       0.978134
     8   C       3.932360
     9   C       3.932360
    10   H       0.978242
    11   H       0.978242
    12   H       0.979772
    13   H       0.979772
    14   H       0.982384
    15   H       0.982384

 Total charge composition:

   CEN ATOM         s          p       ELECTRONS ->P.CHARGE
     1   C       3.02485    3.40487      6.42973   -0.42973
     2   C       2.91892    2.84519      5.76412    0.23588
     3   O       3.63256    4.89591      8.52847   -0.52847
     4   H       0.66994                 0.66994    0.33006
     5   H       0.86065                 0.86065    0.13935
     6   H       0.85213                 0.85213    0.14787
     7   H       0.85213                 0.85213    0.14787
     8   C       3.03158    3.41230      6.44387   -0.44387
     9   C       3.03158    3.41230      6.44387   -0.44387
    10   H       0.85250                 0.85250    0.14750
    11   H       0.85250                 0.85250    0.14750
    12   H       0.85778                 0.85778    0.14222
    13   H       0.85778                 0.85778    0.14222
    14   H       0.86728                 0.86728    0.13272
    15   H       0.86728                 0.86728    0.13272

 Total charge composition, AO contributions:

   CEN ATOM SHL      SPHERICAL COMPONENTS
     1   C  1s       1.99154
     1   C  2s       1.03332
     1   C  2p       1.05133    1.17074    1.18281

     2   C  1s       1.99316
     2   C  2s       0.92576
     2   C  2p       1.01633    0.81166    1.01720

     3   O  1s       1.99725
     3   O  2s       1.63531
     3   O  2p       1.46735    1.47906    1.94949

     4   H  1s       0.66994

     5   H  1s       0.86065

     6   H  1s       0.85213

     7   H  1s       0.85213

     8   C  1s       1.99164
     8   C  2s       1.03994
     8   C  2p       1.15266    1.15401    1.10564

     9   C  1s       1.99164
     9   C  2s       1.03994
     9   C  2p       1.15266    1.15401    1.10564

    10   H  1s       0.85250

    11   H  1s       0.85250

    12   H  1s       0.85778

    13   H  1s       0.85778

    14   H  1s       0.86728

    15   H  1s       0.86728

 Summary of localized orbital composition:   [THRPRINT= 0.020]

   ORB  GRP  ORB.ENERGY      CENTERS/CHARGES
     1   1   -18.516983      O  3   2.000
     2   1    -9.794899      C  2   2.000
     3   1    -9.708767      C  8   2.000
     4   1    -9.708767      C  9   2.000
     5   1    -9.702636      C  1   2.000
     6   1    -0.679575      O  3   1.332   H  4   0.657
     7   1    -0.646755      O  3   1.263   C  2   0.718
     8   1    -0.510554      C  8   1.009   C  2   0.974
     9   1    -0.510554      C  9   1.009   C  2   0.974
    10   1    -0.509981      C  1   0.991   C  2   0.982   (other: 0.026)
    11   1    -0.467095      O  3   1.979   (other: 0.021)
    12   1    -0.441086      C  9   1.138   H 13   0.847
    13   1    -0.441086      C  8   1.138   H 12   0.847
    14   1    -0.440636      C  9   1.128   H 15   0.859
    15   1    -0.440636      C  8   1.128   H 14   0.859
    16   1    -0.436838      C  1   1.132   H  5   0.853
    17   1    -0.435331      C  8   1.145   H 10   0.843
    18   1    -0.435331      C  9   1.145   H 11   0.843
    19   1    -0.430431      C  1   1.145   H  7   0.843
    20   1    -0.430431      C  1   1.145   H  6   0.843
    21   1    -0.232689      O  3   1.949   (other: 0.051)

 Localized orbitals saved to record      2100.2  (orbital set 2)


 **********************************************************************************************************************************
 DATASETS  * FILE   NREC   LENGTH (MB)   RECORD NAMES
              1      20      122.15       500      610      700      900      950      970     1000      129      960     1100   
                                          VAR    BASINP    GEOM    SYMINP    ZMAT    AOBASIS   BASIS     P2S    ABASIS      S 
                                         1400     1410     1200     1210     1080     1600     1650     1300     1700     1800   
                                           T        V       H0       H01     AOSYM     SMH    MOLCAS    ERIS     OPER     GRID   

              2       5        3.42       700     1000      520     1800     2100   
                                         GEOM     BASIS   MCVARS    GRID      RKS  

 PROGRAMS   *        TOTAL      IBBA        KS       INT
 CPU TIMES  *        19.00      0.04     14.84      3.98
 REAL TIME  *        25.19 SEC
 DISK USED  *       426.89 MB      
 **********************************************************************************************************************************
 Molecular orbitals read from record     2100.2  Type=RKS/LOCAL(IBO)  
 Occupation numbers read from record     2100.2  Type=RKS/LOCAL(IBO)  
 Orbital energies read from record       2100.2  Type=RKS/LOCAL(IBO)  
 Redundancy group numbers read from rec  2100.2  Type=RKS/LOCAL(IBO)  

 IBBA/SVP energy=      0.000000000000

        KS-SCF  
   -232.01336180
 **********************************************************************************************************************************
 Molpro calculation terminated
