
 Primary working directories    : /tmp/sb13343
 Secondary working directories  : /tmp/sb13343
 Wavefunction directory         : /panfs/panasas01/chem/sb13343/wfu/
 Main file repository           : /tmp/sb13343/

 SHA1      : b4a5b34a9e711420743f49e6833241d17c61fb3c
 NAME      : 2099.9.b4a5b34
 ARCHNAME  : linux/x86_64_openmp
 FC        : /cm/shared/languages/GCC-6.1/bin/gfortran
 BLASLIB   : -lblas
 id        : simonbennie

 Nodes     nprocs
 node32-002    1

 Using customized tuning parameters: mindgm=1; mindgv=20; mindgc=4; mindgr=1; noblas=0; minvec=7
 default implementation of scratch files=df  

 memory,500,m
 geomtyp=xyz
 nosym
 noorient
 geometry={
 C          0.00000        0.00000        0.00000
 C          0.00000        0.00000        1.53307
 O          1.40344        0.00000        1.86307
 C          1.76314        0.00000        3.22887
 H         -1.02289        0.00000       -0.39176
 H          0.51995       -0.88625       -0.37815
 H          0.51995        0.88625       -0.37815
 H          2.85677        0.00000        3.25413
 H          1.40708       -0.89217        3.76475
 H          1.40708        0.89217        3.76475
 C         -0.69252       -1.26694        2.06222
 C         -0.69252        1.26694        2.06222
 H         -0.15366       -2.16088        1.72982
 H         -0.15366        2.16088        1.72982
 H         -1.72011       -1.32515        1.68649
 H         -1.72011        1.32515        1.68649
 H         -0.74365       -1.28188        3.15638
 H         -0.74365        1.28188        3.15638
 }
 basis={ default,svp }
 {uks,B3LYP5,direct;wf,50,1,0}
 {ibba,bonds=1}

 Variables initialized (895), CPU time= 0.00 sec
 Commands  initialized (725), CPU time= 0.01 sec, 591 directives.
 Default parameters read. Elapsed time= 0.12 sec

 Checking input...
 Passed
1


                                         ***  PROGRAM SYSTEM MOLPRO  ***
                                       Copyright, TTI GmbH Stuttgart, 2015
                                    Version 2099.9 linked May 26 2017 16:03:21


 **********************************************************************************************************************************
 LABEL *                                                                                 
  64 bit serial version                                                                  DATE: 09-Jun-17          TIME: 01:50:53  
 **********************************************************************************************************************************

 SHA1:             b4a5b34a9e711420743f49e6833241d17c61fb3c
 **********************************************************************************************************************************
 SETTING GEOMTYP        =    XYZ

 Variable memory set to  500000000 words,  buffer space 

 ZSYMEL=NOSYM

 SETTING BASIS          =    SVP


 Recomputing integrals since basis changed


 Using spherical harmonics

 Library entry C      S def2-SVP             selected for orbital group  1
 Library entry C      P def2-SVP             selected for orbital group  1
 Library entry C      D def2-SVP             selected for orbital group  1
 Library entry O      S def2-SVP             selected for orbital group  2
 Library entry O      P def2-SVP             selected for orbital group  2
 Library entry O      D def2-SVP             selected for orbital group  2
 Library entry H      S def2-SVP             selected for orbital group  4
 Library entry H      P def2-SVP             selected for orbital group  4


 PROGRAM * SEWARD (Integral evaluation for generally contracted gaussian basis sets)     Author: Roland Lindh, 1990

 Geometry written to block  1 of record 700


 Point group  C1  



 ATOMIC COORDINATES

 NR  ATOM    CHARGE       X              Y              Z

   1  C       6.00    0.000000000    0.000000000    0.000000000
   2  C       6.00    0.000000000    0.000000000    2.897082430
   3  O       8.00    2.652117232    0.000000000    3.520692051
   4  C       6.00    3.331851719    0.000000000    6.101679992
   5  H       1.00   -1.932981956    0.000000000   -0.740319107
   6  H       1.00    0.982563098   -1.674769778   -0.714599934
   7  H       1.00    0.982563098    1.674769778   -0.714599934
   8  H       1.00    5.398512901    0.000000000    6.149414474
   9  H       1.00    2.658995835   -1.685956957    7.114346427
  10  H       1.00    2.658995835    1.685956957    7.114346427
  11  C       6.00   -1.308673136   -2.394169616    3.897031009
  12  C       6.00   -1.308673136    2.394169616    3.897031009
  13  H       1.00   -0.290375316   -4.083471388    3.268886045
  14  H       1.00   -0.290375316    4.083471388    3.268886045
  15  H       1.00   -3.250536804   -2.504170574    3.187004212
  16  H       1.00   -3.250536804    2.504170574    3.187004212
  17  H       1.00   -1.405294833   -2.422402125    5.964693745
  18  H       1.00   -1.405294833    2.422402125    5.964693745

 Bond lengths in Bohr (Angstrom)

 1-2  2.897082430  1-5  2.069901355  1-6  2.069042560  1-7  2.069042560  2-3  2.724447609
     ( 1.533070000)     ( 1.095344626)     ( 1.094890171)     ( 1.094890171)     ( 1.441715587)

  2-11  2.905954351   2-12  2.905954351   3- 4  2.668995640   4- 8  2.067212379   4- 9  2.078624355
       ( 1.537764818)       ( 1.537764818)       ( 1.412371669)       ( 1.093921681)       ( 1.099960639)

  4-10  2.078624355  11-13  2.070081404  11-15  2.070524757  11-17  2.070111596  12-14  2.070081404
       ( 1.099960639)       ( 1.095439904)       ( 1.095674516)       ( 1.095455880)       ( 1.095439904)

 12-16  2.070524757  12-18  2.070111596
       ( 1.095674516)       ( 1.095455880)

 Bond angles

  1- 2- 3  103.23196371   1- 2-11  110.12706952   1- 2-12  110.12706952   2- 1- 5  110.95650426

  2- 1- 6  110.20481748   2- 1- 7  110.20481748   2- 3- 4  117.98647004   2-11-13  110.26679927

  2-11-15  110.37287188   2-11-17  112.08316935   2-12-14  110.26679927   2-12-16  110.37287188

  2-12-18  112.08316935   3- 2-11  111.07703285   3- 2-12  111.07703285   3- 4- 8  106.07765410

  3- 4- 9  112.87219182   3- 4-10  112.87219182   5- 1- 6  108.65976572   5- 1- 7  108.65976572

  6- 1- 7  108.08288210   8- 4- 9  108.20190897   8- 4-10  108.20190897   9- 4-10  108.40564999

 11- 2-12  110.95103964  13-11-15  108.29648994  13-11-17  108.35544687  14-12-16  108.29648994

 14-12-18  108.35544687  15-11-17  107.33851825  16-12-18  107.33851825

 NUCLEAR CHARGE:                   50
 NUMBER OF PRIMITIVE AOS:         234
 NUMBER OF SYMMETRY AOS:          228
 NUMBER OF CONTRACTIONS:          144   ( 144A   )
 NUMBER OF CORE ORBITALS:           6   (   6A   )
 NUMBER OF VALENCE ORBITALS:       36   (  36A   )


 NUCLEAR REPULSION ENERGY  270.15500869


 Eigenvalues of metric

         1 0.176E-02 0.508E-02 0.513E-02 0.102E-01 0.124E-01 0.215E-01 0.221E-01 0.252E-01


 Contracted 2-electron integrals neglected if value below      1.0D-11
 AO integral compression algorithm  1   Integral accuracy      1.0D-11

     186.384 MB (compressed) written to integral file ( 41.3%)


 NUMBER OF SORTED TWO-ELECTRON INTEGRALS:   54502020.     BUFFER LENGTH:  32768
 NUMBER OF SEGMENTS:   4  SEGMENT LENGTH:   15999503      RECORD LENGTH: 524288

 Memory used in sort:      16.56 MW

 SORT1 READ    56333432. AND WROTE    45703433. INTEGRALS IN    132 RECORDS. CPU TIME:     0.82 SEC, REAL TIME:     2.51 SEC
 SORT2 READ    45703433. AND WROTE    54502020. INTEGRALS IN    711 RECORDS. CPU TIME:     1.27 SEC, REAL TIME:     8.40 SEC

 FILE SIZES:   FILE 1:   217.4 MBYTE,  FILE 4:   553.7 MBYTE,   TOTAL:    771.1 MBYTE

 OPERATOR DM      FOR CENTER  0  COORDINATES:    0.000000    0.000000    0.000000


 **********************************************************************************************************************************
 DATASETS  * FILE   NREC   LENGTH (MB)   RECORD NAMES
              1      19      194.45       500      610      700      900      950      970     1000      129      960     1100   
                                          VAR    BASINP    GEOM    SYMINP    ZMAT    AOBASIS   BASIS     P2S    ABASIS      S 
                                         1400     1410     1200     1210     1080     1600     1650     1300     1700   
                                           T        V       H0       H01     AOSYM     SMH    MOLCAS    ERIS     OPER   

 PROGRAMS   *        TOTAL       INT
 CPU TIMES  *         7.89      7.73
 REAL TIME  *        21.85 SEC
 DISK USED  *       771.70 MB      
 **********************************************************************************************************************************

 Density functional group B3LYP5=B88+DIRAC+LYP+VWN5
 Functional: B88(Automatically generated (new) B88)                            Gradient terms: 1
 Functional: DIRAC(Automatically generated (new) DIRAC)                        Gradient terms: 0
 Functional: LYP(Automatically generated (new) LYP)                            Gradient terms: 1
 Functional: VWN5(Automatically generated (new) VWN5)                          Gradient terms: 0
 Use grid at  1800.2


 Exact exchange will be calculated, factor:  0.2000

 Functional: B88                       Factor:  0.7200
 Functional: DIRAC                     Factor:  0.0800
 Functional: LYP                       Factor:  0.8100
 Functional: VWN5                      Factor:  0.1900

 Generated new metagrid on record  1800.2 with target accuracy 1.0D-06 and 66012 points in CPU time    2.0
 Computed new grid on record 1800.1 in CPU time    2.3
  118710 words reserved for DFT integration

 PROGRAM * UKS-SCF (Unrestricted Kohn-Sham)     Authors: W. Meyer, H.-J. Werner, P.J. Knowles, 1993

 NUMBER OF ELECTRONS:      25+   25-    SPACE SYMMETRY=1    SPIN SYMMETRY: Singlet 
 CONVERGENCE THRESHOLDS:    1.00E-05 (Density)    1.00E-06 (Energy)
 MAX. NUMBER OF ITERATIONS:       60
 INTERPOLATION TYPE:            DIIS
 INTERPOLATION STEPS:              2 (START)      1 (STEP)
 LEVEL SHIFTS:                 -0.20 (ALPHA)  -0.20 (BETA) 



 Use fine grid record 1800.2 for energy threshold  1.0D-06
 Orbital guess generated from atomic densities. Full valence occupancy:   25

 Molecular orbital dump at record        2200.2

 Initial alpha occupation  25
 Initial beta  occupation  25

 ITERATION    DDIFF          GRAD             ENERGY        2-EL.EN.            DIPOLE MOMENTS         DIIS
    1      0.000D+00      0.000D+00      -272.37470939    802.428704   -0.69669    0.00000    0.63707    0
    2      0.951D-02      0.434D-02      -272.56373110    781.894394   -0.34675    0.00000    0.26134    1
    3      0.280D-02      0.176D-02      -272.58944336    786.673114   -0.39560    0.00000    0.35036    2
    4      0.793D-03      0.278D-03      -272.59039828    786.341268   -0.35767    0.00000    0.32610    3
    5      0.498D-03      0.141D-03      -272.59071933    786.305819   -0.35931    0.00000    0.32873    4
    6      0.308D-03      0.379D-04      -272.59076781    786.257170   -0.35342    0.00000    0.32697    5
    7      0.497D-04      0.756D-05      -272.59076923    786.247475   -0.35454    0.00000    0.32742    6
    8      0.109D-04      0.362D-05      -272.59076941    786.250445   -0.35421    0.00000    0.32754    7
    9      0.446D-05      0.907D-06      -272.59076943    786.250035   -0.35414    0.00000    0.32748    6
   10      0.142D-05      0.279D-06      -272.59076943    786.249865   -0.35419    0.00000    0.32752    7

 Final alpha occupancy:  25
 Final beta  occupancy:  25

 !UKS STATE 1.1 Energy               -272.590769429889
 Nuclear energy                       270.15500869
 One-electron energy                 -903.53975556
 Two-electron energy                  393.12493270
 Density functional                   -32.33095527     B88=-38.39364798 DIRAC=-34.60044352 LYP= -1.63022495 VWN5= -3.15268965
 Virial quotient                       -1.01082164
 !UKS STATE 1.1 Dipole moment          -0.35418701     0.00000000     0.32751510
 Dipole moment /Debye                  -0.90019462     0.00000000     0.83240584

 Orbital energies for positive spin:

         1.1          2.1          3.1          4.1          5.1          6.1          7.1          8.1          9.1         10.1
    -19.116571   -10.234129   -10.219552   -10.172638   -10.172624   -10.167070    -1.004198    -0.784590    -0.685359    -0.680166

        11.1         12.1         13.1         14.1         15.1         16.1         17.1         18.1         19.1         20.1
     -0.657692    -0.539821    -0.478879    -0.457097    -0.454376    -0.426353    -0.408945    -0.394334    -0.378367    -0.369546

        21.1         22.1         23.1         24.1         25.1         26.1         27.1
     -0.361755    -0.339358    -0.339346    -0.292230    -0.247196     0.052252     0.083912

 Orbital energies for negative spin:

         1.1          2.1          3.1          4.1          5.1          6.1          7.1          8.1          9.1         10.1
    -19.116571   -10.234129   -10.219552   -10.172638   -10.172624   -10.167070    -1.004198    -0.784590    -0.685359    -0.680166

        11.1         12.1         13.1         14.1         15.1         16.1         17.1         18.1         19.1         20.1
     -0.657692    -0.539821    -0.478879    -0.457097    -0.454376    -0.426353    -0.408945    -0.394334    -0.378367    -0.369546

        21.1         22.1         23.1         24.1         25.1         26.1         27.1
     -0.361755    -0.339358    -0.339346    -0.292230    -0.247196     0.052252     0.083912

 HOMO     25.1    -0.247196 =      -6.7265eV
 LUMO     26.1     0.052252 =       1.4219eV
 LUMO-HOMO         0.299448 =       8.1484eV

 EXPECTATION VALUE OF S**2:            -0.00000000

 Natural orbitals saved to record    2200.2 (Orbital set 3)

 Orbital spaces for UNO-CAS (Min. occupation: 0.020  Max. occupation: 1.980):

 Closed:       25
 Active:        0


 **********************************************************************************************************************************
 DATASETS  * FILE   NREC   LENGTH (MB)   RECORD NAMES
              1      20      196.57       500      610      700      900      950      970     1000      129      960     1100   
                                          VAR    BASINP    GEOM    SYMINP    ZMAT    AOBASIS   BASIS     P2S    ABASIS      S 
                                         1400     1410     1200     1210     1080     1600     1650     1300     1700     1800   
                                           T        V       H0       H01     AOSYM     SMH    MOLCAS    ERIS     OPER     GRID   

              2       5        3.91       700     1000      520     1800     2200   
                                         GEOM     BASIS   MCVARS    GRID      UKS  

 PROGRAMS   *        TOTAL       UKS       INT
 CPU TIMES  *        51.27     43.38      7.73
 REAL TIME  *        89.43 SEC
 DISK USED  *       771.70 MB      
 **********************************************************************************************************************************


 PROGRAM * Intrinsic Basis Bonding Analysis (IBBA)          Author: G. Knizia

 Molecular orbitals read from record     2200.2  Type=UKS/ALPHA (state 1.1)
 Fock matrix read from record            2200.2  Type=UKS/TOTAL (state 1.1)
 Orbital energies read from record       2200.2  Type=UKS/ALPHA (state 1.1)
 Density matrix read from record         2200.2  Type=UKS/CHARGE (state 1.1)

 Number of core orbitals:           6 (   6 )
 Number of closed-shell orbitals:  19 (  19 )

 Basis set MINAO-AUTO-PP generated.      Number of basis functions:   42 

 Polarized AO type:                A = (O Ot + (1-O)(1-Ot)) P12
 Orthogonalization method:         Symmetric (Loewdin)
 Localization functional:          L = sum[A,i] <i|n_A|i>^4 -> max

 Localization group 1:  25 orbitals, occupancy  2.000
 Iterative localization: IB/PM,    7 iter; Final gradient 0.13E-08

 Bond order analysis:       [THRPRINT= 0.020]

   CEN ATOM   CEN ATOM     WIBERG.BO      RENORM.BO
     1   C  -   2   C       0.996008       0.995481
     1   C  -   5   H       0.965990       0.985849
     1   C  -   7   H       0.961651       0.981936
     1   C  -   6   H       0.961651       0.981936

     2   C  -   1   C       0.996008       0.995481
     2   C  -  12   C       0.991889       0.972980
     2   C  -  11   C       0.991889       0.972980
     2   C  -   3   O       0.926125       0.938840

     3   O  -   4   C       0.988732       1.014786
     3   O  -   2   C       0.926125       0.938840
     3   O  -   9   H       0.032941       0.019373
     3   O  -  10   H       0.032941       0.019373
     3   O  -  12   C       0.025624       0.013344
     3   O  -  11   C       0.025624       0.013344

     4   C  -   3   O       0.988732       1.014786
     4   C  -   8   H       0.958478       0.978520
     4   C  -   9   H       0.951181       0.938401
     4   C  -  10   H       0.951181       0.938401

     5   H  -   1   C       0.965990       0.985849

     6   H  -   1   C       0.961651       0.981936

     7   H  -   1   C       0.961651       0.981936

     8   H  -   4   C       0.958478       0.978520

     9   H  -   4   C       0.951181       0.938401
     9   H  -   3   O       0.032941       0.019373

    10   H  -   4   C       0.951181       0.938401
    10   H  -   3   O       0.032941       0.019373

    11   C  -   2   C       0.991889       0.972980
    11   C  -  17   H       0.964239       0.981752
    11   C  -  15   H       0.962509       0.986676
    11   C  -  13   H       0.962005       0.981938
    11   C  -   3   O       0.025624       0.013344

    12   C  -   2   C       0.991889       0.972980
    12   C  -  18   H       0.964239       0.981752
    12   C  -  16   H       0.962509       0.986676
    12   C  -  14   H       0.962005       0.981938
    12   C  -   3   O       0.025624       0.013344

    13   H  -  11   C       0.962005       0.981938

    14   H  -  12   C       0.962005       0.981938

    15   H  -  11   C       0.962509       0.986676

    16   H  -  12   C       0.962509       0.986676

    17   H  -  11   C       0.964239       0.981752

    18   H  -  12   C       0.964239       0.981752


 Valency analysis:

   CEN ATOM   TOT.VALENCE
     1   C       3.943480
     2   C       3.933781
     3   O       2.098862
     4   C       3.872664
     5   H       0.985195
     6   H       0.982326
     7   H       0.982326
     8   H       0.979270
     9   H       0.988582
    10   H       0.988582
    11   C       3.943520
    12   C       3.943520
    13   H       0.982565
    14   H       0.982565
    15   H       0.983130
    16   H       0.983130
    17   H       0.984975
    18   H       0.984975

 Total charge composition:

   CEN ATOM         s          p       ELECTRONS ->P.CHARGE
     1   C       3.02296    3.35937      6.38234   -0.38234
     2   C       2.92463    2.82572      5.75034    0.24966
     3   O       3.60010    4.80434      8.40443   -0.40443
     4   C       3.01021    3.16345      6.17366   -0.17366
     5   H       0.87832                 0.87832    0.12168
     6   H       0.86706                 0.86706    0.13294
     7   H       0.86706                 0.86706    0.13294
     8   H       0.85602                 0.85602    0.14398
     9   H       0.89315                 0.89315    0.10685
    10   H       0.89315                 0.89315    0.10685
    11   C       3.02307    3.37867      6.40174   -0.40174
    12   C       3.02307    3.37867      6.40174   -0.40174
    13   H       0.86796                 0.86796    0.13204
    14   H       0.86796                 0.86796    0.13204
    15   H       0.87012                 0.87012    0.12988
    16   H       0.87012                 0.87012    0.12988
    17   H       0.87743                 0.87743    0.12257
    18   H       0.87743                 0.87743    0.12257

 Total charge composition, AO contributions:

   CEN ATOM SHL      SPHERICAL COMPONENTS
     1   C  1s       1.99107
     1   C  2s       1.03189
     1   C  2p       1.15266    1.16625    1.04046

     2   C  1s       1.99275
     2   C  2s       0.93188
     2   C  2p       0.79468    1.01556    1.01547

     3   O  1s       1.99726
     3   O  2s       1.60284
     3   O  2p       1.43934    1.91294    1.45205

     4   C  1s       1.99171
     4   C  2s       1.01850
     4   C  2p       1.15389    1.16211    0.84746

     5   H  1s       0.87832

     6   H  1s       0.86706

     7   H  1s       0.86706

     8   H  1s       0.85602

     9   H  1s       0.89315

    10   H  1s       0.89315

    11   C  1s       1.99112
    11   C  2s       1.03195
    11   C  2p       1.13908    1.09414    1.14544

    12   C  1s       1.99112
    12   C  2s       1.03195
    12   C  2p       1.13908    1.09414    1.14544

    13   H  1s       0.86796

    14   H  1s       0.86796

    15   H  1s       0.87012

    16   H  1s       0.87012

    17   H  1s       0.87743

    18   H  1s       0.87743

 Summary of localized orbital composition:   [THRPRINT= 0.020]

   ORB  GRP  ORB.ENERGY      CENTERS/CHARGES
     1   1   -18.972911      O  3   2.000
     2   1   -10.143281      C  2   2.000
     3   1   -10.110516      C  4   2.000
     4   1   -10.058718      C 12   2.000
     5   1   -10.058718      C 11   2.000
     6   1   -10.052497      C  1   2.000
     7   1    -0.751385      O  3   1.249   C  4   0.743
     8   1    -0.724357      O  3   1.275   C  2   0.701   (other: 0.024)
     9   1    -0.567143      C 11   1.008   C  2   0.977
    10   1    -0.567143      C 12   1.008   C  2   0.977
    11   1    -0.563866      C  1   0.990   C  2   0.987   (other: 0.022)
    12   1    -0.531246      O  3   1.961   (other: 0.039)
    13   1    -0.513851      C  4   1.125   H 10   0.873
    14   1    -0.513851      C  4   1.125   H  9   0.873
    15   1    -0.510964      C  4   1.143   H  8   0.849
    16   1    -0.498612      C 11   1.123   H 15   0.862
    17   1    -0.498612      C 12   1.123   H 16   0.862
    18   1    -0.497173      C 12   1.120   H 18   0.870
    19   1    -0.497173      C 11   1.120   H 17   0.870
    20   1    -0.494328      C  1   1.116   H  5   0.871
    21   1    -0.492939      C 12   1.130   H 14   0.860
    22   1    -0.492939      C 11   1.130   H 13   0.860
    23   1    -0.487346      C  1   1.130   H  6   0.859
    24   1    -0.487346      C  1   1.130   H  7   0.859
    25   1    -0.295341      O  3   1.913   (other: 0.087)

 Localized orbitals saved to record      2200.2  (orbital set 4)


 **********************************************************************************************************************************
 DATASETS  * FILE   NREC   LENGTH (MB)   RECORD NAMES
              1      20      196.57       500      610      700      900      950      970     1000      129      960     1100   
                                          VAR    BASINP    GEOM    SYMINP    ZMAT    AOBASIS   BASIS     P2S    ABASIS      S 
                                         1400     1410     1200     1210     1080     1600     1650     1300     1700     1800   
                                           T        V       H0       H01     AOSYM     SMH    MOLCAS    ERIS     OPER     GRID   

              2       5        4.08       700     1000      520     1800     2200   
                                         GEOM     BASIS   MCVARS    GRID      UKS  

 PROGRAMS   *        TOTAL      IBBA       UKS       INT
 CPU TIMES  *        51.32      0.05     43.38      7.73
 REAL TIME  *        89.66 SEC
 DISK USED  *       771.70 MB      
 **********************************************************************************************************************************
 Molecular orbitals read from record     2200.2  Type=UKS/LOCAL(IBO)  
 Occupation numbers read from record     2200.2  Type=UKS/LOCAL(IBO)  
 Orbital energies read from record       2200.2  Type=UKS/LOCAL(IBO)  
 Redundancy group numbers read from rec  2200.2  Type=UKS/BETA (state 1.1)

 IBBA/SVP energy=      0.000000000000

        UKS-SCF 
   -272.59076943
 **********************************************************************************************************************************
 Molpro calculation terminated
