
 Primary working directories    : /tmp/sb13343
 Secondary working directories  : /tmp/sb13343
 Wavefunction directory         : /panfs/panasas01/chem/sb13343/wfu/
 Main file repository           : /tmp/sb13343/

 SHA1      : b4a5b34a9e711420743f49e6833241d17c61fb3c
 NAME      : 2099.9.b4a5b34
 ARCHNAME  : linux/x86_64_openmp
 FC        : /cm/shared/languages/GCC-6.1/bin/gfortran
 BLASLIB   : -lblas
 id        : simonbennie

 Nodes     nprocs
 node32-028    1

 Using customized tuning parameters: mindgm=1; mindgv=20; mindgc=4; mindgr=1; noblas=0; minvec=7
 default implementation of scratch files=df  

 memory,500,m
 geomtyp=xyz
 nosym
 noorient
 geometry={
 H         -1.13405        1.76167        0.00000
 C         -1.32915        0.67205        0.00000
 C         -0.06360       -0.12883        0.00000
 C          0.67426       -0.31636        1.28970
 C          0.67426       -0.31636       -1.28970
 H         -1.94006        0.46750        0.88859
 H         -1.94006        0.46750       -0.88859
 H          1.28359        0.56876        1.55544
 H         -0.01165       -0.48291        2.13019
 H          1.36783       -1.16569        1.24157
 H          1.28359        0.56876       -1.55544
 H         -0.01165       -0.48291       -2.13019
 H          1.36783       -1.16569       -1.24157
 }
 basis={ default,sto-3g }
 {uks,PW91,direct;wf,33,1,1}
 {ibba,bonds=1}

 Variables initialized (895), CPU time= 0.00 sec
 Commands  initialized (725), CPU time= 0.02 sec, 591 directives.
 Default parameters read. Elapsed time= 0.08 sec

 Checking input...
 Passed
1


                                         ***  PROGRAM SYSTEM MOLPRO  ***
                                       Copyright, TTI GmbH Stuttgart, 2015
                                    Version 2099.9 linked May 26 2017 16:03:21


 **********************************************************************************************************************************
 LABEL *                                                                                 
  64 bit serial version                                                                  DATE: 08-Jun-17          TIME: 20:26:33  
 **********************************************************************************************************************************

 SHA1:             b4a5b34a9e711420743f49e6833241d17c61fb3c
 **********************************************************************************************************************************
 SETTING GEOMTYP        =    XYZ

 Variable memory set to  500000000 words,  buffer space 

 ZSYMEL=NOSYM

 SETTING BASIS          =    STO-3G


 Recomputing integrals since basis changed


 Using spherical harmonics

 Library entry H      S STO-3G               selected for orbital group  1
 Library entry C      S STO-3G               selected for orbital group  2
 Library entry C      P STO-3G               selected for orbital group  2


 PROGRAM * SEWARD (Integral evaluation for generally contracted gaussian basis sets)     Author: Roland Lindh, 1990

 Geometry written to block  1 of record 700


 Point group  C1  



 ATOMIC COORDINATES

 NR  ATOM    CHARGE       X              Y              Z

   1  H       1.00   -2.143043912    3.329073822    0.000000000
   2  C       6.00   -2.511729478    1.269990442    0.000000000
   3  C       6.00   -0.120186582   -0.243453417    0.000000000
   4  C       6.00    1.274166737   -0.597833757    2.437179783
   5  C       6.00    1.274166737   -0.597833757   -2.437179783
   6  H       1.00   -3.666182065    0.883446963    1.679191737
   7  H       1.00   -3.666182065    0.883446963   -1.679191737
   8  H       1.00    2.425633556    1.074800631    2.939355603
   9  H       1.00   -0.022015309   -0.912567643    4.025475693
  10  H       1.00    2.584824085   -2.202834846    2.346227264
  11  H       1.00    2.425633556    1.074800631   -2.939355603
  12  H       1.00   -0.022015309   -0.912567643   -4.025475693
  13  H       1.00    2.584824085   -2.202834846   -2.346227264

 Bond lengths in Bohr (Angstrom)

 1-2  2.091830159  2-3  2.830192527  2-6  2.074092940  2-7  2.074092940  3-4  2.830132841
     ( 1.106948849)     ( 1.497673388)     ( 1.097562717)     ( 1.097562717)     ( 1.497641803)

  3- 5  2.830132841   4- 8  2.091832255   4- 9  2.074085151   4-10  2.074156104   5-11  2.091832255
       ( 1.497641803)       ( 1.106949959)       ( 1.097558596)       ( 1.097596142)       ( 1.106949959)

  5-12  2.074085151   5-13  2.074156104
       ( 1.097558596)       ( 1.097596142)

 Bond angles

  1-2-3  112.17549786   1-2-6  106.35284965   1-2-7  106.35284965   2-3-4  118.89987932

  2-3-5  118.89987932   3-2-6  111.75744418   3-2-7  111.75744418   3-4-8  112.19808176

  3- 4- 9  111.75014522   3- 4-10  111.74379558   3- 5-11  112.19808176   3- 5-12  111.75014522

  3- 5-13  111.74379558   4- 3- 5  118.89276928   6- 2- 7  108.11431090   8- 4- 9  106.34995457

  8- 4-10  106.34572146   9- 4-10  108.12296896  11- 5-12  106.34995457  11- 5-13  106.34572146

 12- 5-13  108.12296896

 NUCLEAR CHARGE:                   33
 NUMBER OF PRIMITIVE AOS:          87
 NUMBER OF SYMMETRY AOS:           87
 NUMBER OF CONTRACTIONS:           29   (  29A   )
 NUMBER OF CORE ORBITALS:           4   (   4A   )
 NUMBER OF VALENCE ORBITALS:       25   (  25A   )


 NUCLEAR REPULSION ENERGY  124.92676597


 Eigenvalues of metric

         1 0.210E+00 0.225E+00 0.225E+00 0.315E+00 0.353E+00 0.353E+00 0.362E+00 0.372E+00


 Contracted 2-electron integrals neglected if value below      1.0D-11
 AO integral compression algorithm  1   Integral accuracy      1.0D-11

     0.786 MB (compressed) written to integral file (100.0%)


 NUMBER OF SORTED TWO-ELECTRON INTEGRALS:      94830.     BUFFER LENGTH:  32768
 NUMBER OF SEGMENTS:   1  SEGMENT LENGTH:      94830      RECORD LENGTH: 524288

 Memory used in sort:       0.65 MW

 SORT1 READ      108770. AND WROTE       91348. INTEGRALS IN      1 RECORDS. CPU TIME:     0.01 SEC, REAL TIME:     0.00 SEC
 SORT2 READ       91348. AND WROTE       94830. INTEGRALS IN      3 RECORDS. CPU TIME:     0.01 SEC, REAL TIME:     0.01 SEC

 FILE SIZES:   FILE 1:    31.0 MBYTE,  FILE 4:     4.2 MBYTE,   TOTAL:     35.2 MBYTE

 OPERATOR DM      FOR CENTER  0  COORDINATES:    0.000000    0.000000    0.000000


 **********************************************************************************************************************************
 DATASETS  * FILE   NREC   LENGTH (MB)   RECORD NAMES
              1      19       30.62       500      610      700      900      950      970     1000      129      960     1100   
                                          VAR    BASINP    GEOM    SYMINP    ZMAT    AOBASIS   BASIS     P2S    ABASIS      S 
                                         1400     1410     1200     1210     1080     1600     1650     1300     1700   
                                           T        V       H0       H01     AOSYM     SMH    MOLCAS    ERIS     OPER   

 PROGRAMS   *        TOTAL       INT
 CPU TIMES  *         0.45      0.31
 REAL TIME  *         0.78 SEC
 DISK USED  *        35.68 MB      
 **********************************************************************************************************************************

 Density functional group PW91=PW91X+PW91C
 Functional: PW91X(Automatically generated (new) PW91X)                        Gradient terms: 1
 Functional: PW91C(Automatically generated (new) PW91C)                        Gradient terms: 1
 Use grid at  1800.2

 Functional: PW91X                     Factor:  1.0000
 Functional: PW91C                     Factor:  1.0000

 Generated new metagrid on record  1800.2 with target accuracy 1.0D-06 and 45406 points in CPU time    1.3
 Computed new grid on record 1800.1 in CPU time    1.4
   27459 words reserved for DFT integration

 PROGRAM * UKS-SCF (Unrestricted Kohn-Sham)     Authors: W. Meyer, H.-J. Werner, P.J. Knowles, 1993

 NUMBER OF ELECTRONS:      17+   16-    SPACE SYMMETRY=1    SPIN SYMMETRY: Doublet 
 CONVERGENCE THRESHOLDS:    1.00E-05 (Density)    1.00E-06 (Energy)
 MAX. NUMBER OF ITERATIONS:       60
 INTERPOLATION TYPE:            DIIS
 INTERPOLATION STEPS:              2 (START)      1 (STEP)
 LEVEL SHIFTS:                 -0.20 (ALPHA)  -0.20 (BETA) 



 Use fine grid record 1800.2 for energy threshold  1.0D-06
 Orbital guess generated from atomic densities. Full valence occupancy:   17

 Molecular orbital dump at record        2200.2

 Initial alpha occupation  17
 Initial beta  occupation  16

 ITERATION    DDIFF          GRAD             ENERGY        2-EL.EN.            DIPOLE MOMENTS         DIIS
    1      0.000D+00      0.000D+00      -155.53567807    413.408059    0.21160    0.42785   -0.00000    0
    2      0.645D-01      0.216D-01      -155.80428547    399.211973    0.02778    0.05614   -0.00000    1
    3      0.114D-01      0.477D-02      -155.81698738    401.479061    0.04501    0.09106   -0.00000    2
    4      0.171D-02      0.885D-03      -155.81791049    401.456054    0.04295    0.08692   -0.00000    3
    5      0.793D-03      0.470D-03      -155.81813200    401.457920    0.04025    0.08146   -0.00000    4
    6      0.337D-03      0.115D-03      -155.81815311    401.450900    0.03970    0.08036   -0.00000    5
    7      0.399D-04      0.152D-04      -155.81815341    401.450668    0.03966    0.08027   -0.00000    6
    8      0.639D-05      0.268D-05      -155.81815342    401.450726    0.03966    0.08027   -0.00000    5
    9      0.885D-06      0.516D-06      -155.81815342    401.450667    0.03966    0.08027   -0.00000    5

 Final alpha occupancy:  17
 Final beta  occupancy:  16

 !UKS STATE 1.1 Energy               -155.818153424940
 Nuclear energy                       124.92676597
 One-electron energy                 -456.46606979
 Two-electron energy                  200.72533345
 Density functional                   -25.00418306     PW91X=-23.86557226 PW91C= -1.13861080
 Virial quotient                       -1.01565501
 !UKS STATE 1.1 Dipole moment           0.03965666     0.08026612    -0.00000000
 Dipole moment /Debye                   0.10079057     0.20400278    -0.00000000

 Orbital energies for positive spin:

         1.1          2.1          3.1          4.1          5.1          6.1          7.1          8.1          9.1         10.1
     -9.720102    -9.720090    -9.720088    -9.702667    -0.681393    -0.583344    -0.583340    -0.438396    -0.352170    -0.350225

        11.1         12.1         13.1         14.1         15.1         16.1         17.1         18.1         19.1
     -0.350218    -0.300662    -0.300632    -0.283410    -0.253394    -0.253385    -0.060866     0.340559     0.340565

 Orbital energies for negative spin:

         1.1          2.1          3.1          4.1          5.1          6.1          7.1          8.1          9.1         10.1
     -9.720971    -9.720969    -9.720953    -9.688437    -0.665893    -0.581680    -0.581674    -0.420743    -0.346758    -0.346758

        11.1         12.1         13.1         14.1         15.1         16.1         17.1         18.1         19.1
     -0.337916    -0.297318    -0.297288    -0.282872    -0.247879    -0.247872     0.039655     0.344640     0.344646

 HOMO     17.1    -0.060866 =      -1.6562eV
 LUMO    -17.1     0.039655 =       1.0791eV
 LUMO-HOMO         0.100521 =       2.7353eV

 EXPECTATION VALUE OF S**2:             0.75331015

 Occupation number threshold for canonical orbitals:  1.999000 (occupied),  0.001000 (virtual)

 Number of pseudo-canonical orbitals per symmetry:   16
 Number of active natural orbitals per symmetry:      1

 Natural orbitals saved to record    2200.2 (Orbital set 3)

 Orbital spaces for UNO-CAS (Min. occupation: 0.020  Max. occupation: 1.980):

 Closed:       16
 Active:        1


 **********************************************************************************************************************************
 DATASETS  * FILE   NREC   LENGTH (MB)   RECORD NAMES
              1      20       32.07       500      610      700      900      950      970     1000      129      960     1100   
                                          VAR    BASINP    GEOM    SYMINP    ZMAT    AOBASIS   BASIS     P2S    ABASIS      S 
                                         1400     1410     1200     1210     1080     1600     1650     1300     1700     1800   
                                           T        V       H0       H01     AOSYM     SMH    MOLCAS    ERIS     OPER     GRID   

              2       5        3.00       700     1000      520     1800     2200   
                                         GEOM     BASIS   MCVARS    GRID      UKS  

 PROGRAMS   *        TOTAL       UKS       INT
 CPU TIMES  *         4.54      4.09      0.31
 REAL TIME  *         4.97 SEC
 DISK USED  *        35.68 MB      
 **********************************************************************************************************************************


 PROGRAM * Intrinsic Basis Bonding Analysis (IBBA)          Author: G. Knizia

 Molecular orbitals read from record     2200.2  Type=UKS/ALPHA (state 1.1)
 Fock matrix read from record            2200.2  Type=UKS/TOTAL (state 1.1)
 Orbital energies read from record       2200.2  Type=UKS/ALPHA (state 1.1)
 Density matrix read from record         2200.2  Type=UKS/CHARGE (state 1.1)

 Number of core orbitals:           4 (   4 )
 Number of closed-shell orbitals:  12 (  12 )
 Number of active  orbitals:        1 (   1 )

 Basis set MINAO-AUTO-PP generated.      Number of basis functions:   29 

 Polarized AO type:                A = (O Ot + (1-O)(1-Ot)) P12
 Orthogonalization method:         Symmetric (Loewdin)
 Localization functional:          L = sum[A,i] <i|n_A|i>^4 -> max

 Localization group 1:  16 orbitals, occupancy  2.000
 Iterative localization: IB/PM,    8 iter; Final gradient 0.52E-09

 Bond order analysis:       [THRPRINT= 0.020]

   CEN ATOM   CEN ATOM     WIBERG.BO      RENORM.BO
     1   H  -   2   C       0.896965       0.996892
     1   H  -   3   C       0.046732       0.181396

     2   C  -   3   C       1.109215       1.310802
     2   C  -   7   H       0.951346       0.989181
     2   C  -   6   H       0.951346       0.989181
     2   C  -   1   H       0.896965       0.996892

     3   C  -   2   C       1.109215       1.310802
     3   C  -   5   C       1.109202       1.310765
     3   C  -   4   C       1.109202       1.310765
     3   C  -   1   H       0.046732       0.181396
     3   C  -  11   H       0.046699       0.181265
     3   C  -   8   H       0.046699       0.181265

     4   C  -   3   C       1.109202       1.310765
     4   C  -   9   H       0.951397       0.989173
     4   C  -  10   H       0.951275       0.989192
     4   C  -   8   H       0.896999       0.996887

     5   C  -   3   C       1.109202       1.310765
     5   C  -  12   H       0.951397       0.989173
     5   C  -  13   H       0.951275       0.989192
     5   C  -  11   H       0.896999       0.996887

     6   H  -   2   C       0.951346       0.989181

     7   H  -   2   C       0.951346       0.989181

     8   H  -   4   C       0.896999       0.996887
     8   H  -   3   C       0.046699       0.181265

     9   H  -   4   C       0.951397       0.989173

    10   H  -   4   C       0.951275       0.989192

    11   H  -   5   C       0.896999       0.996887
    11   H  -   3   C       0.046699       0.181265

    12   H  -   5   C       0.951397       0.989173

    13   H  -   5   C       0.951275       0.989192


 Valency analysis:

   CEN ATOM   TOT.VALENCE
     1   H       0.966730
     2   C       3.943086
     3   C       3.524740
     4   C       3.943085
     5   C       3.943085
     6   H       0.979392
     7   H       0.979392
     8   H       0.966733
     9   H       0.979407
    10   H       0.979379
    11   H       0.966733
    12   H       0.979407
    13   H       0.979379
 Localization group 2:   1 orbitals, occupancy  1.000
 Iterative localization: IB/PM,    1 iter; Final gradient 0.00E+00

 Bond order analysis:       [THRPRINT= 0.020]

   CEN ATOM   CEN ATOM     WIBERG.BO      RENORM.BO
     1   H  -   3   C       0.076630       0.500000


     3   C  -   1   H       0.076630       0.500000
     3   C  -  11   H       0.076622       0.500000
     3   C  -   8   H       0.076622       0.500000





     8   H  -   3   C       0.076622       0.500000



    11   H  -   3   C       0.076622       0.500000




 Valency analysis:

   CEN ATOM   TOT.VALENCE
     1   H       0.095054
     2   C       0.016171
     3   C       0.358663
     4   C       0.016147
     5   C       0.016147
     6   H       0.019677
     7   H       0.019677
     8   H       0.095046
     9   H       0.019604
    10   H       0.019777
    11   H       0.095046
    12   H       0.019604
    13   H       0.019777

 Total charge composition:

   CEN ATOM         s          p       ELECTRONS ->P.CHARGE
     1   H       0.86763                 0.86763    0.13237
     2   C       2.98776    3.37034      6.35810   -0.35810
     3   C       3.01467    3.10982      6.12449   -0.12449
     4   C       2.98775    3.37034      6.35809   -0.35809
     5   C       2.98775    3.37034      6.35809   -0.35809
     6   H       0.86638                 0.86638    0.13362
     7   H       0.86638                 0.86638    0.13362
     8   H       0.86763                 0.86763    0.13237
     9   H       0.86640                 0.86640    0.13360
    10   H       0.86639                 0.86639    0.13361
    11   H       0.86763                 0.86763    0.13237
    12   H       0.86640                 0.86640    0.13360
    13   H       0.86639                 0.86639    0.13361

 Total charge composition, AO contributions:

   CEN ATOM SHL      SPHERICAL COMPONENTS
     1   H  1s       0.86763

     2   C  1s       1.99195
     2   C  2s       0.99581
     2   C  2p       1.08657    1.11594    1.16783

     3   C  1s       1.99323
     3   C  2s       1.02144
     3   C  2p       1.03043    1.05774    1.02165

     4   C  1s       1.99195
     4   C  2s       0.99580
     4   C  2p       1.13521    1.15002    1.08512

     5   C  1s       1.99195
     5   C  2s       0.99580
     5   C  2p       1.13521    1.15002    1.08512

     6   H  1s       0.86638

     7   H  1s       0.86638

     8   H  1s       0.86763

     9   H  1s       0.86640

    10   H  1s       0.86639

    11   H  1s       0.86763

    12   H  1s       0.86640

    13   H  1s       0.86639

 Active orbital charges:

   CEN ATOM         s          p       ELECTRONS ->SPIN.DEN
     1   H       0.05003                 0.05003    0.05003
     2   C       0.00017    0.00798      0.00815    0.00815
     3   C       0.01161    0.75423      0.76584    0.76584
     4   C       0.00017    0.00797      0.00814    0.00814
     5   C       0.00017    0.00797      0.00814    0.00814
     6   H       0.00994                 0.00994    0.00994
     7   H       0.00994                 0.00994    0.00994
     8   H       0.05003                 0.05003    0.05003
     9   H       0.00990                 0.00990    0.00990
    10   H       0.00999                 0.00999    0.00999
    11   H       0.05003                 0.05003    0.05003
    12   H       0.00990                 0.00990    0.00990
    13   H       0.00999                 0.00999    0.00999

 Active orbital charges, AO contributions:

   CEN ATOM SHL      SPHERICAL COMPONENTS
     1   H  1s       0.05003

     2   C  1s       0.00000
     2   C  2s       0.00017
     2   C  2p       0.00018    0.00780    0.00000

     3   C  1s       0.00002
     3   C  2s       0.01159
     3   C  2p       0.14759    0.60663    0.00000

     4   C  1s       0.00000
     4   C  2s       0.00017
     4   C  2p       0.00247    0.00495    0.00054

     5   C  1s       0.00000
     5   C  2s       0.00017
     5   C  2p       0.00247    0.00495    0.00054

     6   H  1s       0.00994

     7   H  1s       0.00994

     8   H  1s       0.05003

     9   H  1s       0.00990

    10   H  1s       0.00999

    11   H  1s       0.05003

    12   H  1s       0.00990

    13   H  1s       0.00999

 Summary of localized orbital composition:   [THRPRINT= 0.020]

   ORB  GRP  ORB.ENERGY      CENTERS/CHARGES
     1   1    -9.610786      C  2   2.000
     2   1    -9.610786      C  5   2.000
     3   1    -9.610786      C  4   2.000
     4   1    -9.598375      C  3   2.000
     5   1    -0.481822      C  3   1.007   C  4   0.980
     6   1    -0.481822      C  3   1.007   C  5   0.980
     7   1    -0.481800      C  3   1.007   C  2   0.980
     8   1    -0.410599      C  2   1.106   H  1   0.811   C  3   0.076
     9   1    -0.410596      C  5   1.106   H 11   0.811   C  3   0.076
    10   1    -0.410596      C  4   1.106   H  8   0.811   C  3   0.076
    11   1    -0.406425      C  2   1.128   H  7   0.850   (other: 0.023)
    12   1    -0.406425      C  2   1.128   H  6   0.850   (other: 0.023)
    13   1    -0.406424      C  5   1.128   H 12   0.850   (other: 0.023)
    14   1    -0.406424      C  4   1.128   H  9   0.850   (other: 0.023)
    15   1    -0.406405      C  5   1.128   H 13   0.850   (other: 0.023)
    16   1    -0.406405      C  4   1.128   H 10   0.850   (other: 0.023)
    17   2    -0.011375      C  3   0.766   H  1   0.050   H 11   0.050   H  8   0.050   (other: 0.084)

 Localized orbitals saved to record      2200.2  (orbital set 4)


 **********************************************************************************************************************************
 DATASETS  * FILE   NREC   LENGTH (MB)   RECORD NAMES
              1      20       32.07       500      610      700      900      950      970     1000      129      960     1100   
                                          VAR    BASINP    GEOM    SYMINP    ZMAT    AOBASIS   BASIS     P2S    ABASIS      S 
                                         1400     1410     1200     1210     1080     1600     1650     1300     1700     1800   
                                           T        V       H0       H01     AOSYM     SMH    MOLCAS    ERIS     OPER     GRID   

              2       5        3.01       700     1000      520     1800     2200   
                                         GEOM     BASIS   MCVARS    GRID      UKS  

 PROGRAMS   *        TOTAL      IBBA       UKS       INT
 CPU TIMES  *         4.57      0.03      4.09      0.31
 REAL TIME  *         5.36 SEC
 DISK USED  *        35.68 MB      
 **********************************************************************************************************************************
 Molecular orbitals read from record     2200.2  Type=UKS/LOCAL(IBO)  
 Occupation numbers read from record     2200.2  Type=UKS/LOCAL(IBO)  
 Orbital energies read from record       2200.2  Type=UKS/LOCAL(IBO)  
 Redundancy group numbers read from rec  2200.2  Type=UKS/BETA (state 1.1)

 IBBA/STO-3G energy=      0.000000000000

        UKS-SCF 
   -155.81815342
 **********************************************************************************************************************************
 Molpro calculation terminated
