
 Primary working directories    : /tmp/sb13343
 Secondary working directories  : /tmp/sb13343
 Wavefunction directory         : /panfs/panasas01/chem/sb13343/wfu/
 Main file repository           : /tmp/sb13343/

 SHA1      : b4a5b34a9e711420743f49e6833241d17c61fb3c
 NAME      : 2099.9.b4a5b34
 ARCHNAME  : linux/x86_64_openmp
 FC        : /cm/shared/languages/GCC-6.1/bin/gfortran
 BLASLIB   : -lblas
 id        : simonbennie

 Nodes     nprocs
 node35-048    1

 Using customized tuning parameters: mindgm=1; mindgv=20; mindgc=4; mindgr=1; noblas=0; minvec=7
 default implementation of scratch files=df  

 memory,500,m
 geomtyp=xyz
 nosym
 noorient
 geometry={
 C          0.00000        0.00000        0.00000
 C          0.00000        0.00000        1.53307
 O          1.40344        0.00000        1.86307
 C          1.76314        0.00000        3.22887
 H         -1.02289        0.00000       -0.39176
 H          0.51995       -0.88625       -0.37815
 H          0.51995        0.88625       -0.37815
 H          2.85677        0.00000        3.25413
 H          1.40708       -0.89217        3.76475
 H          1.40708        0.89217        3.76475
 C         -0.69252       -1.26694        2.06222
 C         -0.69252        1.26694        2.06222
 H         -0.15366       -2.16088        1.72982
 H         -0.15366        2.16088        1.72982
 H         -1.72011       -1.32515        1.68649
 H         -1.72011        1.32515        1.68649
 H         -0.74365       -1.28188        3.15638
 H         -0.74365        1.28188        3.15638
 }
 basis={ default,sto-3g }
 {uks,B97R,direct;wf,50,1,0}
 {ibba,bonds=1}

 Variables initialized (895), CPU time= 0.00 sec
 Commands  initialized (725), CPU time= 0.01 sec, 591 directives.
 Default parameters read. Elapsed time= 0.09 sec

 Checking input...
 Passed
1


                                         ***  PROGRAM SYSTEM MOLPRO  ***
                                       Copyright, TTI GmbH Stuttgart, 2015
                                    Version 2099.9 linked May 26 2017 16:03:21


 **********************************************************************************************************************************
 LABEL *                                                                                 
  64 bit serial version                                                                  DATE: 09-Jun-17          TIME: 01:33:17  
 **********************************************************************************************************************************

 SHA1:             b4a5b34a9e711420743f49e6833241d17c61fb3c
 **********************************************************************************************************************************
 SETTING GEOMTYP        =    XYZ

 Variable memory set to  500000000 words,  buffer space 

 ZSYMEL=NOSYM

 SETTING BASIS          =    STO-3G


 Recomputing integrals since basis changed


 Using spherical harmonics

 Library entry C      S STO-3G               selected for orbital group  1
 Library entry C      P STO-3G               selected for orbital group  1
 Library entry O      S STO-3G               selected for orbital group  2
 Library entry O      P STO-3G               selected for orbital group  2
 Library entry H      S STO-3G               selected for orbital group  4


 PROGRAM * SEWARD (Integral evaluation for generally contracted gaussian basis sets)     Author: Roland Lindh, 1990

 Geometry written to block  1 of record 700


 Point group  C1  



 ATOMIC COORDINATES

 NR  ATOM    CHARGE       X              Y              Z

   1  C       6.00    0.000000000    0.000000000    0.000000000
   2  C       6.00    0.000000000    0.000000000    2.897082430
   3  O       8.00    2.652117232    0.000000000    3.520692051
   4  C       6.00    3.331851719    0.000000000    6.101679992
   5  H       1.00   -1.932981956    0.000000000   -0.740319107
   6  H       1.00    0.982563098   -1.674769778   -0.714599934
   7  H       1.00    0.982563098    1.674769778   -0.714599934
   8  H       1.00    5.398512901    0.000000000    6.149414474
   9  H       1.00    2.658995835   -1.685956957    7.114346427
  10  H       1.00    2.658995835    1.685956957    7.114346427
  11  C       6.00   -1.308673136   -2.394169616    3.897031009
  12  C       6.00   -1.308673136    2.394169616    3.897031009
  13  H       1.00   -0.290375316   -4.083471388    3.268886045
  14  H       1.00   -0.290375316    4.083471388    3.268886045
  15  H       1.00   -3.250536804   -2.504170574    3.187004212
  16  H       1.00   -3.250536804    2.504170574    3.187004212
  17  H       1.00   -1.405294833   -2.422402125    5.964693745
  18  H       1.00   -1.405294833    2.422402125    5.964693745

 Bond lengths in Bohr (Angstrom)

 1-2  2.897082430  1-5  2.069901355  1-6  2.069042560  1-7  2.069042560  2-3  2.724447609
     ( 1.533070000)     ( 1.095344626)     ( 1.094890171)     ( 1.094890171)     ( 1.441715587)

  2-11  2.905954351   2-12  2.905954351   3- 4  2.668995640   4- 8  2.067212379   4- 9  2.078624355
       ( 1.537764818)       ( 1.537764818)       ( 1.412371669)       ( 1.093921681)       ( 1.099960639)

  4-10  2.078624355  11-13  2.070081404  11-15  2.070524757  11-17  2.070111596  12-14  2.070081404
       ( 1.099960639)       ( 1.095439904)       ( 1.095674516)       ( 1.095455880)       ( 1.095439904)

 12-16  2.070524757  12-18  2.070111596
       ( 1.095674516)       ( 1.095455880)

 Bond angles

  1- 2- 3  103.23196371   1- 2-11  110.12706952   1- 2-12  110.12706952   2- 1- 5  110.95650426

  2- 1- 6  110.20481748   2- 1- 7  110.20481748   2- 3- 4  117.98647004   2-11-13  110.26679927

  2-11-15  110.37287188   2-11-17  112.08316935   2-12-14  110.26679927   2-12-16  110.37287188

  2-12-18  112.08316935   3- 2-11  111.07703285   3- 2-12  111.07703285   3- 4- 8  106.07765410

  3- 4- 9  112.87219182   3- 4-10  112.87219182   5- 1- 6  108.65976572   5- 1- 7  108.65976572

  6- 1- 7  108.08288210   8- 4- 9  108.20190897   8- 4-10  108.20190897   9- 4-10  108.40564999

 11- 2-12  110.95103964  13-11-15  108.29648994  13-11-17  108.35544687  14-12-16  108.29648994

 14-12-18  108.35544687  15-11-17  107.33851825  16-12-18  107.33851825

 NUCLEAR CHARGE:                   50
 NUMBER OF PRIMITIVE AOS:         126
 NUMBER OF SYMMETRY AOS:          126
 NUMBER OF CONTRACTIONS:           42   (  42A   )
 NUMBER OF CORE ORBITALS:           6   (   6A   )
 NUMBER OF VALENCE ORBITALS:       36   (  36A   )


 NUCLEAR REPULSION ENERGY  270.15500869


 Eigenvalues of metric

         1 0.207E+00 0.226E+00 0.228E+00 0.234E+00 0.307E+00 0.355E+00 0.359E+00 0.362E+00


 Contracted 2-electron integrals neglected if value below      1.0D-11
 AO integral compression algorithm  1   Integral accuracy      1.0D-11

     2.884 MB (compressed) written to integral file ( 84.3%)


 NUMBER OF SORTED TWO-ELECTRON INTEGRALS:     408156.     BUFFER LENGTH:  32768
 NUMBER OF SEGMENTS:   1  SEGMENT LENGTH:     408156      RECORD LENGTH: 524288

 Memory used in sort:       0.97 MW

 SORT1 READ      453477. AND WROTE      382834. INTEGRALS IN      2 RECORDS. CPU TIME:     0.01 SEC, REAL TIME:     0.03 SEC
 SORT2 READ      382834. AND WROTE      408156. INTEGRALS IN     11 RECORDS. CPU TIME:     0.03 SEC, REAL TIME:     0.04 SEC

 FILE SIZES:   FILE 1:    33.2 MBYTE,  FILE 4:     8.4 MBYTE,   TOTAL:     41.6 MBYTE

 OPERATOR DM      FOR CENTER  0  COORDINATES:    0.000000    0.000000    0.000000


 **********************************************************************************************************************************
 DATASETS  * FILE   NREC   LENGTH (MB)   RECORD NAMES
              1      19       31.98       500      610      700      900      950      970     1000      129      960     1100   
                                          VAR    BASINP    GEOM    SYMINP    ZMAT    AOBASIS   BASIS     P2S    ABASIS      S 
                                         1400     1410     1200     1210     1080     1600     1650     1300     1700   
                                           T        V       H0       H01     AOSYM     SMH    MOLCAS    ERIS     OPER   

 PROGRAMS   *        TOTAL       INT
 CPU TIMES  *         0.99      0.85
 REAL TIME  *         1.50 SEC
 DISK USED  *        42.19 MB      
 **********************************************************************************************************************************

 Density functional group B97R=B97RDF
 Functional: B97RDF(Automatically generated (new) B97RDF)                      Gradient terms: 1
 Use grid at  1800.2


 Exact exchange will be calculated, factor:  0.2100

 Functional: B97RDF                    Factor:  1.0000

 Generated new metagrid on record  1800.2 with target accuracy 1.0D-06 and 66012 points in CPU time    2.0
 Computed new grid on record 1800.1 in CPU time    2.3
   38106 words reserved for DFT integration

 PROGRAM * UKS-SCF (Unrestricted Kohn-Sham)     Authors: W. Meyer, H.-J. Werner, P.J. Knowles, 1993

 NUMBER OF ELECTRONS:      25+   25-    SPACE SYMMETRY=1    SPIN SYMMETRY: Singlet 
 CONVERGENCE THRESHOLDS:    1.00E-05 (Density)    1.00E-06 (Energy)
 MAX. NUMBER OF ITERATIONS:       60
 INTERPOLATION TYPE:            DIIS
 INTERPOLATION STEPS:              2 (START)      1 (STEP)
 LEVEL SHIFTS:                 -0.20 (ALPHA)  -0.20 (BETA) 



 Use fine grid record 1800.2 for energy threshold  1.0D-06
 Orbital guess generated from atomic densities. Full valence occupancy:   25

 Molecular orbital dump at record        2200.2

 Initial alpha occupation  25
 Initial beta  occupation  25

 ITERATION    DDIFF          GRAD             ENERGY        2-EL.EN.            DIPOLE MOMENTS         DIIS
    1      0.000D+00      0.000D+00      -269.15077026    806.391941   -0.93204    0.00000    0.82014    0
    2      0.485D-01      0.170D-01      -269.51630967    785.843781   -0.28116    0.00000    0.12621    1
    3      0.483D-02      0.209D-02      -269.52094168    787.312180   -0.33350    0.00000    0.21690    2
    4      0.111D-02      0.376D-03      -269.52120690    787.267738   -0.34110    0.00000    0.22518    3
    5      0.429D-03      0.119D-03      -269.52123846    787.260395   -0.34152    0.00000    0.22851    4
    6      0.161D-03      0.302D-04      -269.52124132    787.260351   -0.33982    0.00000    0.22827    5
    7      0.374D-04      0.102D-04      -269.52124149    787.260654   -0.34042    0.00000    0.22879    5
    8      0.124D-04      0.377D-05      -269.52124152    787.259906   -0.34010    0.00000    0.22862    6
    9      0.272D-05      0.544D-06      -269.52124152    787.260165   -0.34013    0.00000    0.22863    6
   10      0.551D-06      0.139D-06      -269.52124152    787.260031   -0.34012    0.00000    0.22862    6

 Final alpha occupancy:  25
 Final beta  occupancy:  25

 !UKS STATE 1.1 Energy               -269.521241516762
 Nuclear energy                       270.15500869
 One-electron energy                 -901.17940494
 Two-electron energy                  393.63001548
 Density functional                   -32.12686076     B97RDF=-32.12686076
 Virial quotient                       -1.01612895
 !UKS STATE 1.1 Dipole moment          -0.34012141     0.00000000     0.22862165
 Dipole moment /Debye                  -0.86444576     0.00000000     0.58106022

 Orbital energies for positive spin:

         1.1          2.1          3.1          4.1          5.1          6.1          7.1          8.1          9.1         10.1
    -18.875270   -10.074429   -10.051424   -10.008220   -10.007791   -10.007706    -0.962090    -0.757464    -0.660227    -0.657657

        11.1         12.1         13.1         14.1         15.1         16.1         17.1         18.1         19.1         20.1
     -0.631897    -0.504036    -0.438779    -0.416430    -0.413351    -0.393834    -0.373187    -0.357169    -0.347501    -0.332347

        21.1         22.1         23.1         24.1         25.1         26.1         27.1
     -0.329679    -0.298848    -0.292579    -0.187812    -0.125862     0.285534     0.366413

 Orbital energies for negative spin:

         1.1          2.1          3.1          4.1          5.1          6.1          7.1          8.1          9.1         10.1
    -18.875270   -10.074429   -10.051424   -10.008220   -10.007791   -10.007706    -0.962090    -0.757464    -0.660227    -0.657657

        11.1         12.1         13.1         14.1         15.1         16.1         17.1         18.1         19.1         20.1
     -0.631897    -0.504036    -0.438779    -0.416430    -0.413351    -0.393834    -0.373187    -0.357169    -0.347501    -0.332347

        21.1         22.1         23.1         24.1         25.1         26.1         27.1
     -0.329679    -0.298848    -0.292579    -0.187812    -0.125862     0.285534     0.366413

 HOMO     25.1    -0.125862 =      -3.4249eV
 LUMO     26.1     0.285534 =       7.7698eV
 LUMO-HOMO         0.411396 =      11.1947eV

 EXPECTATION VALUE OF S**2:            -0.00000000

 Natural orbitals saved to record    2200.2 (Orbital set 3)

 Orbital spaces for UNO-CAS (Min. occupation: 0.020  Max. occupation: 1.980):

 Closed:       25
 Active:        0


 **********************************************************************************************************************************
 DATASETS  * FILE   NREC   LENGTH (MB)   RECORD NAMES
              1      20       34.09       500      610      700      900      950      970     1000      129      960     1100   
                                          VAR    BASINP    GEOM    SYMINP    ZMAT    AOBASIS   BASIS     P2S    ABASIS      S 
                                         1400     1410     1200     1210     1080     1600     1650     1300     1700     1800   
                                           T        V       H0       H01     AOSYM     SMH    MOLCAS    ERIS     OPER     GRID   

              2       5        3.13       700     1000      520     1800     2200   
                                         GEOM     BASIS   MCVARS    GRID      UKS  

 PROGRAMS   *        TOTAL       UKS       INT
 CPU TIMES  *        10.31      9.32      0.85
 REAL TIME  *        11.73 SEC
 DISK USED  *        42.19 MB      
 **********************************************************************************************************************************


 PROGRAM * Intrinsic Basis Bonding Analysis (IBBA)          Author: G. Knizia

 Molecular orbitals read from record     2200.2  Type=UKS/ALPHA (state 1.1)
 Fock matrix read from record            2200.2  Type=UKS/TOTAL (state 1.1)
 Orbital energies read from record       2200.2  Type=UKS/ALPHA (state 1.1)
 Density matrix read from record         2200.2  Type=UKS/CHARGE (state 1.1)

 Number of core orbitals:           6 (   6 )
 Number of closed-shell orbitals:  19 (  19 )

 Basis set MINAO-AUTO-PP generated.      Number of basis functions:   42 

 Polarized AO type:                A = (O Ot + (1-O)(1-Ot)) P12
 Orthogonalization method:         Symmetric (Loewdin)
 Localization functional:          L = sum[A,i] <i|n_A|i>^4 -> max

 Localization group 1:  25 orbitals, occupancy  2.000
 Iterative localization: IB/PM,    7 iter; Final gradient 0.24E-08

 Bond order analysis:       [THRPRINT= 0.020]

   CEN ATOM   CEN ATOM     WIBERG.BO      RENORM.BO
     1   C  -   2   C       0.990929       0.988986
     1   C  -   5   H       0.967460       0.990014
     1   C  -   6   H       0.964227       0.987395
     1   C  -   7   H       0.964227       0.987395

     2   C  -   1   C       0.990929       0.988986
     2   C  -  12   C       0.987644       0.964919
     2   C  -  11   C       0.987644       0.964919
     2   C  -   3   O       0.975787       0.961105

     3   O  -   4   C       1.019450       1.013932
     3   O  -   2   C       0.975787       0.961105
     3   O  -   9   H       0.029176       0.017219
     3   O  -  10   H       0.029176       0.017219
     3   O  -  11   C       0.024549       0.012980
     3   O  -  12   C       0.024549       0.012980

     4   C  -   3   O       1.019450       1.013932
     4   C  -   8   H       0.955664       0.975167
     4   C  -   9   H       0.954754       0.947018
     4   C  -  10   H       0.954754       0.947018

     5   H  -   1   C       0.967460       0.990014

     6   H  -   1   C       0.964227       0.987395

     7   H  -   1   C       0.964227       0.987395

     8   H  -   4   C       0.955664       0.975167

     9   H  -   4   C       0.954754       0.947018
     9   H  -   3   O       0.029176       0.017219

    10   H  -   4   C       0.954754       0.947018
    10   H  -   3   O       0.029176       0.017219

    11   C  -   2   C       0.987644       0.964919
    11   C  -  17   H       0.966333       0.986284
    11   C  -  15   H       0.965157       0.989844
    11   C  -  13   H       0.964829       0.987272
    11   C  -   3   O       0.024549       0.012980

    12   C  -   2   C       0.987644       0.964919
    12   C  -  18   H       0.966333       0.986284
    12   C  -  16   H       0.965157       0.989844
    12   C  -  14   H       0.964829       0.987272
    12   C  -   3   O       0.024549       0.012980

    13   H  -  11   C       0.964829       0.987272

    14   H  -  12   C       0.964829       0.987272

    15   H  -  11   C       0.965157       0.989844

    16   H  -  12   C       0.965157       0.989844

    17   H  -  11   C       0.966333       0.986284

    18   H  -  12   C       0.966333       0.986284


 Valency analysis:

   CEN ATOM   TOT.VALENCE
     1   C       3.935582
     2   C       3.970744
     3   O       2.156457
     4   C       3.906521
     5   H       0.983518
     6   H       0.981741
     7   H       0.981741
     8   H       0.980713
     9   H       0.987962
    10   H       0.987962
    11   C       3.937053
    12   C       3.937053
    13   H       0.982379
    14   H       0.982379
    15   H       0.982569
    16   H       0.982569
    17   H       0.984245
    18   H       0.984245

 Total charge composition:

   CEN ATOM         s          p       ELECTRONS ->P.CHARGE
     1   C       2.99960    3.38568      6.38527   -0.38527
     2   C       2.94821    2.92525      5.87346    0.12654
     3   O       3.65708    4.57020      8.22729   -0.22729
     4   C       3.00446    3.25039      6.25485   -0.25485
     5   H       0.87162                 0.87162    0.12838
     6   H       0.86487                 0.86487    0.13513
     7   H       0.86487                 0.86487    0.13513
     8   H       0.86112                 0.86112    0.13888
     9   H       0.89028                 0.89028    0.10972
    10   H       0.89028                 0.89028    0.10972
    11   C       3.00032    3.39801      6.39833   -0.39833
    12   C       3.00032    3.39801      6.39833   -0.39833
    13   H       0.86726                 0.86726    0.13274
    14   H       0.86726                 0.86726    0.13274
    15   H       0.86797                 0.86797    0.13203
    16   H       0.86797                 0.86797    0.13203
    17   H       0.87448                 0.87448    0.12552
    18   H       0.87448                 0.87448    0.12552

 Total charge composition, AO contributions:

   CEN ATOM SHL      SPHERICAL COMPONENTS
     1   C  1s       1.99176
     1   C  2s       1.00784
     1   C  2p       1.16511    1.17368    1.04689

     2   C  1s       1.99321
     2   C  2s       0.95499
     2   C  2p       0.86681    1.02889    1.02955

     3   O  1s       1.99741
     3   O  2s       1.65967
     3   O  2p       1.31716    1.91730    1.33574

     4   C  1s       1.99231
     4   C  2s       1.01215
     4   C  2p       1.16369    1.17135    0.91535

     5   H  1s       0.87162

     6   H  1s       0.86487

     7   H  1s       0.86487

     8   H  1s       0.86112

     9   H  1s       0.89028

    10   H  1s       0.89028

    11   C  1s       1.99182
    11   C  2s       1.00850
    11   C  2p       1.14796    1.09737    1.15269

    12   C  1s       1.99182
    12   C  2s       1.00850
    12   C  2p       1.14796    1.09737    1.15269

    13   H  1s       0.86726

    14   H  1s       0.86726

    15   H  1s       0.86797

    16   H  1s       0.86797

    17   H  1s       0.87448

    18   H  1s       0.87448

 Summary of localized orbital composition:   [THRPRINT= 0.020]

   ORB  GRP  ORB.ENERGY      CENTERS/CHARGES
     1   1   -18.709121      O  3   2.000
     2   1    -9.981359      C  2   2.000
     3   1    -9.943426      C  4   2.000
     4   1    -9.895534      C 11   2.000
     5   1    -9.895534      C 12   2.000
     6   1    -9.895335      C  1   2.000
     7   1    -0.659262      O  3   1.161   C  4   0.830
     8   1    -0.624652      O  3   1.170   C  2   0.806   (other: 0.024)
     9   1    -0.526127      C 11   0.996   C  2   0.990
    10   1    -0.526127      C 12   0.996   C  2   0.990
    11   1    -0.525795      C  2   0.996   C  1   0.982   (other: 0.023)
    12   1    -0.503397      O  3   1.970   (other: 0.030)
    13   1    -0.484245      C  4   1.126   H 10   0.873
    14   1    -0.484245      C  4   1.126   H  9   0.873
    15   1    -0.484137      C  4   1.138   H  8   0.852
    16   1    -0.469784      C 12   1.123   H 18   0.868
    17   1    -0.469784      C 11   1.123   H 17   0.868
    18   1    -0.469389      C 11   1.128   H 15   0.861
    19   1    -0.469389      C 12   1.128   H 16   0.861
    20   1    -0.469211      C  1   1.125   H  5   0.865
    21   1    -0.465846      C 12   1.131   H 14   0.861
    22   1    -0.465846      C 11   1.131   H 13   0.861
    23   1    -0.462547      C  1   1.133   H  6   0.858
    24   1    -0.462547      C  1   1.133   H  7   0.858
    25   1    -0.162975      O  3   1.917   (other: 0.083)

 Localized orbitals saved to record      2200.2  (orbital set 4)


 **********************************************************************************************************************************
 DATASETS  * FILE   NREC   LENGTH (MB)   RECORD NAMES
              1      20       34.09       500      610      700      900      950      970     1000      129      960     1100   
                                          VAR    BASINP    GEOM    SYMINP    ZMAT    AOBASIS   BASIS     P2S    ABASIS      S 
                                         1400     1410     1200     1210     1080     1600     1650     1300     1700     1800   
                                           T        V       H0       H01     AOSYM     SMH    MOLCAS    ERIS     OPER     GRID   

              2       5        3.15       700     1000      520     1800     2200   
                                         GEOM     BASIS   MCVARS    GRID      UKS  

 PROGRAMS   *        TOTAL      IBBA       UKS       INT
 CPU TIMES  *        10.35      0.04      9.32      0.85
 REAL TIME  *        11.93 SEC
 DISK USED  *        42.19 MB      
 **********************************************************************************************************************************
 Molecular orbitals read from record     2200.2  Type=UKS/LOCAL(IBO)  
 Occupation numbers read from record     2200.2  Type=UKS/LOCAL(IBO)  
 Orbital energies read from record       2200.2  Type=UKS/LOCAL(IBO)  
 Redundancy group numbers read from rec  2200.2  Type=UKS/BETA (state 1.1)

 IBBA/STO-3G energy=      0.000000000000

        UKS-SCF 
   -269.52124152
 **********************************************************************************************************************************
 Molpro calculation terminated
