
 Primary working directories    : /tmp/sb13343
 Secondary working directories  : /tmp/sb13343
 Wavefunction directory         : /panfs/panasas01/chem/sb13343/wfu/
 Main file repository           : /tmp/sb13343/

 SHA1      : b4a5b34a9e711420743f49e6833241d17c61fb3c
 NAME      : 2099.9.b4a5b34
 ARCHNAME  : linux/x86_64_openmp
 FC        : /cm/shared/languages/GCC-6.1/bin/gfortran
 BLASLIB   : -lblas
 id        : simonbennie

 Nodes     nprocs
 node32-028    1

 Using customized tuning parameters: mindgm=1; mindgv=20; mindgc=4; mindgr=1; noblas=0; minvec=7
 default implementation of scratch files=df  

 memory,500,m
 geomtyp=xyz
 nosym
 noorient
 geometry={
 C         -1.53233        0.02247        0.00000
 C         -0.00192        0.01421        0.00000
 O          0.37239        1.40356        0.00000
 H          1.34248        1.44036        0.00000
 H         -1.92991       -0.99819        0.00000
 H         -1.90797        0.54382       -0.88653
 H         -1.90797        0.54382        0.88653
 C          0.54303       -0.66466       -1.26580
 C          0.54303       -0.66466        1.26580
 H          0.17836       -0.14752       -2.15943
 H          0.17836       -0.14752        2.15943
 H          0.23752       -1.71600       -1.32280
 H          0.23752       -1.71600        1.32280
 H          1.64084       -0.63767       -1.28032
 H          1.64084       -0.63767        1.28032
 }
 basis={ default,sto-3g }
 {uks,SOGGA,direct;wf,42,1,0}
 {ibba,bonds=1}

 Variables initialized (895), CPU time= 0.01 sec
 Commands  initialized (725), CPU time= 0.01 sec, 591 directives.
 Default parameters read. Elapsed time= 0.20 sec

 Checking input...
 Passed
1


                                         ***  PROGRAM SYSTEM MOLPRO  ***
                                       Copyright, TTI GmbH Stuttgart, 2015
                                    Version 2099.9 linked May 26 2017 16:03:21


 **********************************************************************************************************************************
 LABEL *                                                                                 
  64 bit serial version                                                                  DATE: 09-Jun-17          TIME: 03:33:28  
 **********************************************************************************************************************************

 SHA1:             b4a5b34a9e711420743f49e6833241d17c61fb3c
 **********************************************************************************************************************************
 SETTING GEOMTYP        =    XYZ

 Variable memory set to  500000000 words,  buffer space 

 ZSYMEL=NOSYM

 SETTING BASIS          =    STO-3G


 Recomputing integrals since basis changed


 Using spherical harmonics

 Library entry C      S STO-3G               selected for orbital group  1
 Library entry C      P STO-3G               selected for orbital group  1
 Library entry O      S STO-3G               selected for orbital group  2
 Library entry O      P STO-3G               selected for orbital group  2
 Library entry H      S STO-3G               selected for orbital group  3


 PROGRAM * SEWARD (Integral evaluation for generally contracted gaussian basis sets)     Author: Roland Lindh, 1990

 Geometry written to block  1 of record 700


 Point group  C1  



 ATOMIC COORDINATES

 NR  ATOM    CHARGE       X              Y              Z

   1  C       6.00   -2.895684032    0.042462146    0.000000000
   2  C       6.00   -0.003628274    0.026853008    0.000000000
   3  O       8.00    0.703715112    2.652343999    0.000000000
   4  H       1.00    2.536919528    2.721885921    0.000000000
   5  H       1.00   -3.647001345   -1.886305720    0.000000000
   6  H       1.00   -3.605540754    1.027670861   -1.675298901
   7  H       1.00   -3.605540754    1.027670861    1.675298901
   8  C       6.00    1.026177977   -1.256025366   -2.392015328
   9  C       6.00    1.026177977   -1.256025366    2.392015328
  10  H       1.00    0.337051552   -0.278772398   -4.080731285
  11  H       1.00    0.337051552   -0.278772398    4.080731285
  12  H       1.00    0.448847749   -3.242770030   -2.499729718
  13  H       1.00    0.448847749   -3.242770030    2.499729718
  14  H       1.00    3.100738214   -1.205021658   -2.419454152
  15  H       1.00    3.100738214   -1.205021658    2.419454152

 Bond lengths in Bohr (Angstrom)

 1-2  2.892097881  1-5  2.069933136  1-6  2.069096224  1-7  2.069096224  2-3  2.719106031
     ( 1.530432290)     ( 1.095361444)     ( 1.094918569)     ( 1.094918569)     ( 1.438888946)

  2- 8  2.903104402   2- 9  2.903104402   3- 4  1.834522965   8-10  2.069222119   8-12  2.071730422
       ( 1.536256691)       ( 1.536256691)       ( 0.970787746)       ( 1.094985190)       ( 1.096312526)

  8-14  2.075368508   9-11  2.069222119   9-13  2.071730422   9-15  2.075368508
       ( 1.098237719)       ( 1.094985190)       ( 1.096312526)       ( 1.098237719)

 Bond angles

  1-2-3  104.76902697   1-2-8  110.92255387   1-2-9  110.92255387   2-1-5  110.97328220

  2- 1- 6  110.22090701   2- 1- 7  110.22090701   2- 3- 4  107.25071562   2- 8-10  110.21836376

  2- 8-12  111.57747468   2- 8-14  110.77023896   2- 9-11  110.21836376   2- 9-13  111.57747468

  2- 9-15  110.77023896   3- 2- 8  109.53648747   3- 2- 9  109.53648747   5- 1- 6  108.61190457

  5- 1- 7  108.61190457   6- 1- 7  108.12870271   8- 2- 9  110.96453384  10- 8-12  108.52192632

 10- 8-14  108.08997829  11- 9-13  108.52192632  11- 9-15  108.08997829  12- 8-14  107.54424578

 13- 9-15  107.54424578

 NUCLEAR CHARGE:                   42
 NUMBER OF PRIMITIVE AOS:         105
 NUMBER OF SYMMETRY AOS:          105
 NUMBER OF CONTRACTIONS:           35   (  35A   )
 NUMBER OF CORE ORBITALS:           5   (   5A   )
 NUMBER OF VALENCE ORBITALS:       30   (  30A   )


 NUCLEAR REPULSION ENERGY  198.77359127


 Eigenvalues of metric

         1 0.207E+00 0.227E+00 0.228E+00 0.304E+00 0.354E+00 0.360E+00 0.361E+00 0.363E+00


 Contracted 2-electron integrals neglected if value below      1.0D-11
 AO integral compression algorithm  1   Integral accuracy      1.0D-11

     1.573 MB (compressed) written to integral file ( 87.8%)


 NUMBER OF SORTED TWO-ELECTRON INTEGRALS:     198765.     BUFFER LENGTH:  32768
 NUMBER OF SEGMENTS:   1  SEGMENT LENGTH:     198765      RECORD LENGTH: 524288

 Memory used in sort:       0.76 MW

 SORT1 READ      224962. AND WROTE      188577. INTEGRALS IN      1 RECORDS. CPU TIME:     0.01 SEC, REAL TIME:     0.01 SEC
 SORT2 READ      188577. AND WROTE      198765. INTEGRALS IN      6 RECORDS. CPU TIME:     0.02 SEC, REAL TIME:     0.02 SEC

 FILE SIZES:   FILE 1:    31.8 MBYTE,  FILE 4:     4.2 MBYTE,   TOTAL:     36.0 MBYTE

 OPERATOR DM      FOR CENTER  0  COORDINATES:    0.000000    0.000000    0.000000


 **********************************************************************************************************************************
 DATASETS  * FILE   NREC   LENGTH (MB)   RECORD NAMES
              1      19       31.10       500      610      700      900      950      970     1000      129      960     1100   
                                          VAR    BASINP    GEOM    SYMINP    ZMAT    AOBASIS   BASIS     P2S    ABASIS      S 
                                         1400     1410     1200     1210     1080     1600     1650     1300     1700   
                                           T        V       H0       H01     AOSYM     SMH    MOLCAS    ERIS     OPER   

 PROGRAMS   *        TOTAL       INT
 CPU TIMES  *         0.74      0.60
 REAL TIME  *         1.37 SEC
 DISK USED  *        36.55 MB      
 **********************************************************************************************************************************

 Density functional group SOGGA=XC-SOGGA
 Functional: XC-SOGGA(via MFM 1.6)                                             Gradient terms: 1
 Use grid at  1800.2

 Functional: XC-SOGGA                  Factor:  1.0000

 Generated new metagrid on record  1800.2 with target accuracy 1.0D-06 and 53396 points in CPU time    1.5
 Computed new grid on record 1800.1 in CPU time    1.7
   32369 words reserved for DFT integration

 PROGRAM * UKS-SCF (Unrestricted Kohn-Sham)     Authors: W. Meyer, H.-J. Werner, P.J. Knowles, 1993

 NUMBER OF ELECTRONS:      21+   21-    SPACE SYMMETRY=1    SPIN SYMMETRY: Singlet 
 CONVERGENCE THRESHOLDS:    1.00E-05 (Density)    1.00E-06 (Energy)
 MAX. NUMBER OF ITERATIONS:       60
 INTERPOLATION TYPE:            DIIS
 INTERPOLATION STEPS:              2 (START)      1 (STEP)
 LEVEL SHIFTS:                 -0.20 (ALPHA)  -0.20 (BETA) 



 Use fine grid record 1800.2 for energy threshold  1.0D-06
 Orbital guess generated from atomic densities. Full valence occupancy:   21

 Molecular orbital dump at record        2200.2

 Initial alpha occupation  21
 Initial beta  occupation  21

 ITERATION    DDIFF          GRAD             ENERGY        2-EL.EN.            DIPOLE MOMENTS         DIIS
    1      0.000D+00      0.000D+00      -228.88001886    641.011209    0.77141   -1.05027    0.00000    0
    2      0.641D-01      0.207D-01      -229.23033458    621.003817    0.22914   -0.33450    0.00000    1
    3      0.119D-01      0.487D-02      -229.24800344    624.248999    0.32177   -0.36086    0.00000    2
    4      0.109D-02      0.458D-03      -229.24821186    624.215394    0.32992   -0.37333    0.00000    3
    5      0.570D-03      0.144D-03      -229.24824599    624.207576    0.32942   -0.36486    0.00000    4
    6      0.167D-03      0.357D-04      -229.24824848    624.205583    0.32982   -0.36465    0.00000    5
    7      0.394D-04      0.983D-05      -229.24824855    624.206529    0.32950   -0.36420    0.00000    5
    8      0.148D-04      0.623D-05      -229.24824858    624.205805    0.32956   -0.36434    0.00000    6
    9      0.201D-05      0.440D-06      -229.24824858    624.205883    0.32957   -0.36432    0.00000    6
   10      0.672D-06      0.223D-06      -229.24824858    624.205847    0.32956   -0.36433    0.00000    6

 Final alpha occupancy:  21
 Final beta  occupancy:  21

 !UKS STATE 1.1 Energy               -229.248248584161
 Nuclear energy                       198.77359127
 One-electron energy                 -707.46778210
 Two-electron energy                  312.10292351
 Density functional                   -32.65698127     XC-SOGGA=-32.65698127
 Virial quotient                       -1.00948401
 !UKS STATE 1.1 Dipole moment           0.32956483    -0.36432663     0.00000000
 Dipole moment /Debye                   0.83761538    -0.92596528     0.00000000

 Orbital energies for positive spin:

         1.1          2.1          3.1          4.1          5.1          6.1          7.1          8.1          9.1         10.1
    -18.365525    -9.687276    -9.623015    -9.622986    -9.622858    -0.845132    -0.655741    -0.572775    -0.571814    -0.445212

        11.1         12.1         13.1         14.1         15.1         16.1         17.1         18.1         19.1         20.1
     -0.372640    -0.343753    -0.343027    -0.300255    -0.295396    -0.272326    -0.269869    -0.240384    -0.237723    -0.136814

        21.1         22.1         23.1
     -0.048361     0.268019     0.329344

 Orbital energies for negative spin:

         1.1          2.1          3.1          4.1          5.1          6.1          7.1          8.1          9.1         10.1
    -18.365525    -9.687276    -9.623015    -9.622986    -9.622858    -0.845132    -0.655741    -0.572775    -0.571814    -0.445212

        11.1         12.1         13.1         14.1         15.1         16.1         17.1         18.1         19.1         20.1
     -0.372640    -0.343753    -0.343027    -0.300255    -0.295396    -0.272326    -0.269869    -0.240384    -0.237723    -0.136814

        21.1         22.1         23.1
     -0.048361     0.268019     0.329344

 HOMO     21.1    -0.048361 =      -1.3160eV
 LUMO     22.1     0.268019 =       7.2932eV
 LUMO-HOMO         0.316380 =       8.6091eV

 EXPECTATION VALUE OF S**2:            -0.00000000

 Natural orbitals saved to record    2200.2 (Orbital set 3)

 Orbital spaces for UNO-CAS (Min. occupation: 0.020  Max. occupation: 1.980):

 Closed:       21
 Active:        0


 **********************************************************************************************************************************
 DATASETS  * FILE   NREC   LENGTH (MB)   RECORD NAMES
              1      20       32.81       500      610      700      900      950      970     1000      129      960     1100   
                                          VAR    BASINP    GEOM    SYMINP    ZMAT    AOBASIS   BASIS     P2S    ABASIS      S 
                                         1400     1410     1200     1210     1080     1600     1650     1300     1700     1800   
                                           T        V       H0       H01     AOSYM     SMH    MOLCAS    ERIS     OPER     GRID   

              2       5        3.05       700     1000      520     1800     2200   
                                         GEOM     BASIS   MCVARS    GRID      UKS  

 PROGRAMS   *        TOTAL       UKS       INT
 CPU TIMES  *         7.03      6.29      0.60
 REAL TIME  *         8.14 SEC
 DISK USED  *        36.55 MB      
 **********************************************************************************************************************************


 PROGRAM * Intrinsic Basis Bonding Analysis (IBBA)          Author: G. Knizia

 Molecular orbitals read from record     2200.2  Type=UKS/ALPHA (state 1.1)
 Fock matrix read from record            2200.2  Type=UKS/TOTAL (state 1.1)
 Orbital energies read from record       2200.2  Type=UKS/ALPHA (state 1.1)
 Density matrix read from record         2200.2  Type=UKS/CHARGE (state 1.1)

 Number of core orbitals:           5 (   5 )
 Number of closed-shell orbitals:  16 (  16 )

 Basis set MINAO-AUTO-PP generated.      Number of basis functions:   35 

 Polarized AO type:                A = (O Ot + (1-O)(1-Ot)) P12
 Orthogonalization method:         Symmetric (Loewdin)
 Localization functional:          L = sum[A,i] <i|n_A|i>^4 -> max

 Localization group 1:  21 orbitals, occupancy  2.000
 Iterative localization: IB/PM,    7 iter; Final gradient 0.22E-08

 Bond order analysis:       [THRPRINT= 0.020]

   CEN ATOM   CEN ATOM     WIBERG.BO      RENORM.BO
     1   C  -   2   C       0.989730       0.983936
     1   C  -   5   H       0.963278       0.989654
     1   C  -   6   H       0.959857       0.986525
     1   C  -   7   H       0.959857       0.986525

     2   C  -   3   O       1.006577       0.979137
     2   C  -   1   C       0.989730       0.983936
     2   C  -   8   C       0.984403       0.956390
     2   C  -   9   C       0.984403       0.956390

     3   O  -   2   C       1.006577       0.979137
     3   O  -   4   H       0.927790       0.980832
     3   O  -   9   C       0.031037       0.016113
     3   O  -   8   C       0.031037       0.016113

     4   H  -   3   O       0.927790       0.980832

     5   H  -   1   C       0.963278       0.989654

     6   H  -   1   C       0.959857       0.986525

     7   H  -   1   C       0.959857       0.986525

     8   C  -   2   C       0.984403       0.956390
     8   C  -  14   H       0.962777       0.985670
     8   C  -  12   H       0.960901       0.986763
     8   C  -  10   H       0.960759       0.986184
     8   C  -   3   O       0.031037       0.016113

     9   C  -   2   C       0.984403       0.956390
     9   C  -  15   H       0.962777       0.985670
     9   C  -  13   H       0.960901       0.986763
     9   C  -  11   H       0.960759       0.986184
     9   C  -   3   O       0.031037       0.016113

    10   H  -   8   C       0.960759       0.986184

    11   H  -   9   C       0.960759       0.986184

    12   H  -   8   C       0.960901       0.986763

    13   H  -   9   C       0.960901       0.986763

    14   H  -   8   C       0.962777       0.985670

    15   H  -   9   C       0.962777       0.985670


 Valency analysis:

   CEN ATOM   TOT.VALENCE
     1   C       3.925889
     2   C       3.975701
     3   O       2.050891
     4   H       0.946083
     5   H       0.980597
     6   H       0.979038
     7   H       0.979038
     8   C       3.928833
     9   C       3.928833
    10   H       0.979693
    11   H       0.979693
    12   H       0.980187
    13   H       0.980187
    14   H       0.982197
    15   H       0.982197

 Total charge composition:

   CEN ATOM         s          p       ELECTRONS ->P.CHARGE
     1   C       2.99993    3.41689      6.41683   -0.41683
     2   C       2.94452    2.94791      5.89243    0.10757
     3   O       3.68321    4.64117      8.32437   -0.32437
     4   H       0.76780                 0.76780    0.23220
     5   H       0.86071                 0.86071    0.13929
     6   H       0.85522                 0.85522    0.14478
     7   H       0.85522                 0.85522    0.14478
     8   C       3.00517    3.42524      6.43040   -0.43040
     9   C       3.00517    3.42524      6.43040   -0.43040
    10   H       0.85750                 0.85750    0.14250
    11   H       0.85750                 0.85750    0.14250
    12   H       0.85924                 0.85924    0.14076
    13   H       0.85924                 0.85924    0.14076
    14   H       0.86657                 0.86657    0.13343
    15   H       0.86657                 0.86657    0.13343

 Total charge composition, AO contributions:

   CEN ATOM SHL      SPHERICAL COMPONENTS
     1   C  1s       1.99234
     1   C  2s       1.00759
     1   C  2p       1.05525    1.17703    1.18461

     2   C  1s       1.99371
     2   C  2s       0.95081
     2   C  2p       1.03281    0.88404    1.03106

     3   O  1s       1.99744
     3   O  2s       1.68576
     3   O  2p       1.35172    1.34030    1.94914

     4   H  1s       0.76780

     5   H  1s       0.86071

     6   H  1s       0.85522

     7   H  1s       0.85522

     8   C  1s       1.99244
     8   C  2s       1.01272
     8   C  2p       1.15854    1.15923    1.10747

     9   C  1s       1.99244
     9   C  2s       1.01272
     9   C  2p       1.15854    1.15923    1.10747

    10   H  1s       0.85750

    11   H  1s       0.85750

    12   H  1s       0.85924

    13   H  1s       0.85924

    14   H  1s       0.86657

    15   H  1s       0.86657

 Summary of localized orbital composition:   [THRPRINT= 0.020]

   ORB  GRP  ORB.ENERGY      CENTERS/CHARGES
     1   1   -18.199799      O  3   2.000
     2   1    -9.597093      C  2   2.000
     3   1    -9.514918      C  9   2.000
     4   1    -9.514918      C  8   2.000
     5   1    -9.513998      C  1   2.000
     6   1    -0.582390      O  3   1.231   H  4   0.759
     7   1    -0.539477      O  3   1.154   C  2   0.829
     8   1    -0.455552      C  2   0.994   C  1   0.983   (other: 0.024)
     9   1    -0.455192      C  9   0.998   C  2   0.987
    10   1    -0.455192      C  8   0.998   C  2   0.987
    11   1    -0.405100      O  3   1.984
    12   1    -0.401009      C  9   1.130   H 15   0.859
    13   1    -0.401009      C  8   1.130   H 14   0.859
    14   1    -0.399112      C  8   1.138   H 12   0.851
    15   1    -0.399112      C  9   1.138   H 13   0.851
    16   1    -0.397595      C  1   1.136   H  5   0.854
    17   1    -0.396206      C  9   1.141   H 11   0.850
    18   1    -0.396206      C  8   1.141   H 10   0.850
    19   1    -0.391685      C  1   1.142   H  7   0.848
    20   1    -0.391685      C  1   1.142   H  6   0.848
    21   1    -0.065635      O  3   1.949   C  2   0.024   (other: 0.027)

 Localized orbitals saved to record      2200.2  (orbital set 4)


 **********************************************************************************************************************************
 DATASETS  * FILE   NREC   LENGTH (MB)   RECORD NAMES
              1      20       32.81       500      610      700      900      950      970     1000      129      960     1100   
                                          VAR    BASINP    GEOM    SYMINP    ZMAT    AOBASIS   BASIS     P2S    ABASIS      S 
                                         1400     1410     1200     1210     1080     1600     1650     1300     1700     1800   
                                           T        V       H0       H01     AOSYM     SMH    MOLCAS    ERIS     OPER     GRID   

              2       5        3.06       700     1000      520     1800     2200   
                                         GEOM     BASIS   MCVARS    GRID      UKS  

 PROGRAMS   *        TOTAL      IBBA       UKS       INT
 CPU TIMES  *         7.06      0.03      6.29      0.60
 REAL TIME  *         8.26 SEC
 DISK USED  *        36.55 MB      
 **********************************************************************************************************************************
 Molecular orbitals read from record     2200.2  Type=UKS/LOCAL(IBO)  
 Occupation numbers read from record     2200.2  Type=UKS/LOCAL(IBO)  
 Orbital energies read from record       2200.2  Type=UKS/LOCAL(IBO)  
 Redundancy group numbers read from rec  2200.2  Type=UKS/BETA (state 1.1)

 IBBA/STO-3G energy=      0.000000000000

        UKS-SCF 
   -229.24824858
 **********************************************************************************************************************************
 Molpro calculation terminated
