
 Primary working directories    : /tmp/sb13343
 Secondary working directories  : /tmp/sb13343
 Wavefunction directory         : /panfs/panasas01/chem/sb13343/wfu/
 Main file repository           : /tmp/sb13343/

 SHA1      : b4a5b34a9e711420743f49e6833241d17c61fb3c
 NAME      : 2099.9.b4a5b34
 ARCHNAME  : linux/x86_64_openmp
 FC        : /cm/shared/languages/GCC-6.1/bin/gfortran
 BLASLIB   : -lblas
 id        : simonbennie

 Nodes     nprocs
 node35-048    1

 Using customized tuning parameters: mindgm=1; mindgv=20; mindgc=4; mindgr=1; noblas=0; minvec=7
 default implementation of scratch files=df  

 memory,500,m
 geomtyp=xyz
 nosym
 noorient
 geometry={
 C          0.00000        0.00000        0.00000
 C          0.00000        0.00000        1.53307
 O          1.40344        0.00000        1.86307
 C          1.76314        0.00000        3.22887
 H         -1.02289        0.00000       -0.39176
 H          0.51995       -0.88625       -0.37815
 H          0.51995        0.88625       -0.37815
 H          2.85677        0.00000        3.25413
 H          1.40708       -0.89217        3.76475
 H          1.40708        0.89217        3.76475
 C         -0.69252       -1.26694        2.06222
 C         -0.69252        1.26694        2.06222
 H         -0.15366       -2.16088        1.72982
 H         -0.15366        2.16088        1.72982
 H         -1.72011       -1.32515        1.68649
 H         -1.72011        1.32515        1.68649
 H         -0.74365       -1.28188        3.15638
 H         -0.74365        1.28188        3.15638
 }
 basis={ default,sto-3g }
 {uks,LSDAC,direct;wf,50,1,0}
 {ibba,bonds=1}

 Variables initialized (895), CPU time= 0.01 sec
 Commands  initialized (725), CPU time= 0.01 sec, 591 directives.
 Default parameters read. Elapsed time= 0.08 sec

 Checking input...
 Passed
1


                                         ***  PROGRAM SYSTEM MOLPRO  ***
                                       Copyright, TTI GmbH Stuttgart, 2015
                                    Version 2099.9 linked May 26 2017 16:03:21


 **********************************************************************************************************************************
 LABEL *                                                                                 
  64 bit serial version                                                                  DATE: 09-Jun-17          TIME: 01:35:57  
 **********************************************************************************************************************************

 SHA1:             b4a5b34a9e711420743f49e6833241d17c61fb3c
 **********************************************************************************************************************************
 SETTING GEOMTYP        =    XYZ

 Variable memory set to  500000000 words,  buffer space 

 ZSYMEL=NOSYM

 SETTING BASIS          =    STO-3G


 Recomputing integrals since basis changed


 Using spherical harmonics

 Library entry C      S STO-3G               selected for orbital group  1
 Library entry C      P STO-3G               selected for orbital group  1
 Library entry O      S STO-3G               selected for orbital group  2
 Library entry O      P STO-3G               selected for orbital group  2
 Library entry H      S STO-3G               selected for orbital group  4


 PROGRAM * SEWARD (Integral evaluation for generally contracted gaussian basis sets)     Author: Roland Lindh, 1990

 Geometry written to block  1 of record 700


 Point group  C1  



 ATOMIC COORDINATES

 NR  ATOM    CHARGE       X              Y              Z

   1  C       6.00    0.000000000    0.000000000    0.000000000
   2  C       6.00    0.000000000    0.000000000    2.897082430
   3  O       8.00    2.652117232    0.000000000    3.520692051
   4  C       6.00    3.331851719    0.000000000    6.101679992
   5  H       1.00   -1.932981956    0.000000000   -0.740319107
   6  H       1.00    0.982563098   -1.674769778   -0.714599934
   7  H       1.00    0.982563098    1.674769778   -0.714599934
   8  H       1.00    5.398512901    0.000000000    6.149414474
   9  H       1.00    2.658995835   -1.685956957    7.114346427
  10  H       1.00    2.658995835    1.685956957    7.114346427
  11  C       6.00   -1.308673136   -2.394169616    3.897031009
  12  C       6.00   -1.308673136    2.394169616    3.897031009
  13  H       1.00   -0.290375316   -4.083471388    3.268886045
  14  H       1.00   -0.290375316    4.083471388    3.268886045
  15  H       1.00   -3.250536804   -2.504170574    3.187004212
  16  H       1.00   -3.250536804    2.504170574    3.187004212
  17  H       1.00   -1.405294833   -2.422402125    5.964693745
  18  H       1.00   -1.405294833    2.422402125    5.964693745

 Bond lengths in Bohr (Angstrom)

 1-2  2.897082430  1-5  2.069901355  1-6  2.069042560  1-7  2.069042560  2-3  2.724447609
     ( 1.533070000)     ( 1.095344626)     ( 1.094890171)     ( 1.094890171)     ( 1.441715587)

  2-11  2.905954351   2-12  2.905954351   3- 4  2.668995640   4- 8  2.067212379   4- 9  2.078624355
       ( 1.537764818)       ( 1.537764818)       ( 1.412371669)       ( 1.093921681)       ( 1.099960639)

  4-10  2.078624355  11-13  2.070081404  11-15  2.070524757  11-17  2.070111596  12-14  2.070081404
       ( 1.099960639)       ( 1.095439904)       ( 1.095674516)       ( 1.095455880)       ( 1.095439904)

 12-16  2.070524757  12-18  2.070111596
       ( 1.095674516)       ( 1.095455880)

 Bond angles

  1- 2- 3  103.23196371   1- 2-11  110.12706952   1- 2-12  110.12706952   2- 1- 5  110.95650426

  2- 1- 6  110.20481748   2- 1- 7  110.20481748   2- 3- 4  117.98647004   2-11-13  110.26679927

  2-11-15  110.37287188   2-11-17  112.08316935   2-12-14  110.26679927   2-12-16  110.37287188

  2-12-18  112.08316935   3- 2-11  111.07703285   3- 2-12  111.07703285   3- 4- 8  106.07765410

  3- 4- 9  112.87219182   3- 4-10  112.87219182   5- 1- 6  108.65976572   5- 1- 7  108.65976572

  6- 1- 7  108.08288210   8- 4- 9  108.20190897   8- 4-10  108.20190897   9- 4-10  108.40564999

 11- 2-12  110.95103964  13-11-15  108.29648994  13-11-17  108.35544687  14-12-16  108.29648994

 14-12-18  108.35544687  15-11-17  107.33851825  16-12-18  107.33851825

 NUCLEAR CHARGE:                   50
 NUMBER OF PRIMITIVE AOS:         126
 NUMBER OF SYMMETRY AOS:          126
 NUMBER OF CONTRACTIONS:           42   (  42A   )
 NUMBER OF CORE ORBITALS:           6   (   6A   )
 NUMBER OF VALENCE ORBITALS:       36   (  36A   )


 NUCLEAR REPULSION ENERGY  270.15500869


 Eigenvalues of metric

         1 0.207E+00 0.226E+00 0.228E+00 0.234E+00 0.307E+00 0.355E+00 0.359E+00 0.362E+00


 Contracted 2-electron integrals neglected if value below      1.0D-11
 AO integral compression algorithm  1   Integral accuracy      1.0D-11

     2.884 MB (compressed) written to integral file ( 84.3%)


 NUMBER OF SORTED TWO-ELECTRON INTEGRALS:     408156.     BUFFER LENGTH:  32768
 NUMBER OF SEGMENTS:   1  SEGMENT LENGTH:     408156      RECORD LENGTH: 524288

 Memory used in sort:       0.97 MW

 SORT1 READ      453477. AND WROTE      382834. INTEGRALS IN      2 RECORDS. CPU TIME:     0.01 SEC, REAL TIME:     0.02 SEC
 SORT2 READ      382834. AND WROTE      408156. INTEGRALS IN     11 RECORDS. CPU TIME:     0.04 SEC, REAL TIME:     0.04 SEC

 FILE SIZES:   FILE 1:    33.2 MBYTE,  FILE 4:     8.4 MBYTE,   TOTAL:     41.6 MBYTE

 OPERATOR DM      FOR CENTER  0  COORDINATES:    0.000000    0.000000    0.000000


 **********************************************************************************************************************************
 DATASETS  * FILE   NREC   LENGTH (MB)   RECORD NAMES
              1      19       31.98       500      610      700      900      950      970     1000      129      960     1100   
                                          VAR    BASINP    GEOM    SYMINP    ZMAT    AOBASIS   BASIS     P2S    ABASIS      S 
                                         1400     1410     1200     1210     1080     1600     1650     1300     1700   
                                           T        V       H0       H01     AOSYM     SMH    MOLCAS    ERIS     OPER   

 PROGRAMS   *        TOTAL       INT
 CPU TIMES  *         0.98      0.83
 REAL TIME  *         1.51 SEC
 DISK USED  *        42.19 MB      
 **********************************************************************************************************************************

 Density functional group LSDAC=PW92C
 Functional: PW92C(Automatically generated (new) PW92C)                        Gradient terms: 0
 Use grid at  1800.2

 Functional: PW92C                     Factor:  1.0000

 Generated new metagrid on record  1800.2 with target accuracy 1.0D-06 and 66012 points in CPU time    2.0
 Computed new grid on record 1800.1 in CPU time    2.3
   22104 words reserved for DFT integration

 PROGRAM * UKS-SCF (Unrestricted Kohn-Sham)     Authors: W. Meyer, H.-J. Werner, P.J. Knowles, 1993

 NUMBER OF ELECTRONS:      25+   25-    SPACE SYMMETRY=1    SPIN SYMMETRY: Singlet 
 CONVERGENCE THRESHOLDS:    1.00E-05 (Density)    1.00E-06 (Energy)
 MAX. NUMBER OF ITERATIONS:       60
 INTERPOLATION TYPE:            DIIS
 INTERPOLATION STEPS:              2 (START)      1 (STEP)
 LEVEL SHIFTS:                 -0.20 (ALPHA)  -0.20 (BETA) 



 Use fine grid record 1800.2 for energy threshold  1.0D-06
 Orbital guess generated from atomic densities. Full valence occupancy:   25

 Molecular orbital dump at record        2200.2

 Initial alpha occupation  25
 Initial beta  occupation  25

 ITERATION    DDIFF          GRAD             ENERGY        2-EL.EN.            DIPOLE MOMENTS         DIIS
    1      0.000D+00      0.000D+00      -232.52667176    803.704594    0.06326    0.00000    0.09546    0
    2      0.343D-01      0.116D-01      -232.64421209    790.918061   -0.03987    0.00000   -0.12750    1
    3      0.101D-01      0.491D-02      -232.66672911    794.012086    0.01785    0.00000   -0.12245    2
    4      0.116D-02      0.579D-03      -232.66710372    794.098511   -0.01909    0.00000   -0.10436    3
    5      0.733D-03      0.199D-03      -232.66718761    794.038756   -0.01621    0.00000   -0.11788    4
    6      0.328D-03      0.636D-04      -232.66719699    794.036420   -0.01802    0.00000   -0.11827    5
    7      0.786D-04      0.312D-04      -232.66719803    794.039266   -0.01914    0.00000   -0.11821    6
    8      0.243D-04      0.566D-05      -232.66719809    794.038697   -0.01894    0.00000   -0.11863    6
    9      0.493D-05      0.157D-05      -232.66719809    794.038283   -0.01893    0.00000   -0.11858    6
   10      0.230D-05      0.642D-06      -232.66719809    794.038491   -0.01895    0.00000   -0.11857    7

 Final alpha occupancy:  25
 Final beta  occupancy:  25

 !UKS STATE 1.1 Energy               -232.667198090634
 Nuclear energy                       270.15500869
 One-electron energy                 -896.70378605
 Two-electron energy                  397.01924534
 Density functional                    -3.13766608     PW92C=-3.13766608
 Virial quotient                       -0.89397581
 !UKS STATE 1.1 Dipole moment          -0.01894583     0.00000000    -0.11856858
 Dipole moment /Debye                  -0.04815235     0.00000000    -0.30135153

 Orbital energies for positive spin:

         1.1          2.1          3.1          4.1          5.1          6.1          7.1          8.1          9.1         10.1
    -15.851279    -7.753978    -7.748926    -7.741462    -7.734747    -7.733072    -0.353363    -0.204730    -0.126334    -0.122006

        11.1         12.1         13.1         14.1         15.1         16.1         17.1         18.1         19.1         20.1
     -0.083242     0.030389     0.047825     0.069581     0.072830     0.097717     0.119060     0.140885     0.149815     0.164288

        21.1         22.1         23.1         24.1         25.1         26.1         27.1
      0.177294     0.201079     0.211402     0.407439     0.469499     0.729551     0.795151

 Orbital energies for negative spin:

         1.1          2.1          3.1          4.1          5.1          6.1          7.1          8.1          9.1         10.1
    -15.851279    -7.753978    -7.748926    -7.741462    -7.734747    -7.733072    -0.353363    -0.204730    -0.126334    -0.122006

        11.1         12.1         13.1         14.1         15.1         16.1         17.1         18.1         19.1         20.1
     -0.083242     0.030389     0.047825     0.069581     0.072830     0.097717     0.119060     0.140885     0.149815     0.164288

        21.1         22.1         23.1         24.1         25.1         26.1         27.1
      0.177294     0.201079     0.211402     0.407439     0.469499     0.729551     0.795151

 HOMO     25.1     0.469499 =      12.7757eV
 LUMO     26.1     0.729551 =      19.8521eV
 LUMO-HOMO         0.260052 =       7.0764eV

 EXPECTATION VALUE OF S**2:            -0.00000000

 Natural orbitals saved to record    2200.2 (Orbital set 3)

 Orbital spaces for UNO-CAS (Min. occupation: 0.020  Max. occupation: 1.980):

 Closed:       25
 Active:        0


 **********************************************************************************************************************************
 DATASETS  * FILE   NREC   LENGTH (MB)   RECORD NAMES
              1      20       34.09       500      610      700      900      950      970     1000      129      960     1100   
                                          VAR    BASINP    GEOM    SYMINP    ZMAT    AOBASIS   BASIS     P2S    ABASIS      S 
                                         1400     1410     1200     1210     1080     1600     1650     1300     1700     1800   
                                           T        V       H0       H01     AOSYM     SMH    MOLCAS    ERIS     OPER     GRID   

              2       5        3.13       700     1000      520     1800     2200   
                                         GEOM     BASIS   MCVARS    GRID      UKS  

 PROGRAMS   *        TOTAL       UKS       INT
 CPU TIMES  *         7.21      6.23      0.83
 REAL TIME  *        26.27 SEC
 DISK USED  *        42.19 MB      
 **********************************************************************************************************************************


 PROGRAM * Intrinsic Basis Bonding Analysis (IBBA)          Author: G. Knizia

 Molecular orbitals read from record     2200.2  Type=UKS/ALPHA (state 1.1)
 Fock matrix read from record            2200.2  Type=UKS/TOTAL (state 1.1)
 Orbital energies read from record       2200.2  Type=UKS/ALPHA (state 1.1)
 Density matrix read from record         2200.2  Type=UKS/CHARGE (state 1.1)

 Number of core orbitals:           6 (   6 )
 Number of closed-shell orbitals:  19 (  19 )

 Basis set MINAO-AUTO-PP generated.      Number of basis functions:   42 

 Polarized AO type:                A = (O Ot + (1-O)(1-Ot)) P12
 Orthogonalization method:         Symmetric (Loewdin)
 Localization functional:          L = sum[A,i] <i|n_A|i>^4 -> max

 Localization group 1:  25 orbitals, occupancy  2.000
 Iterative localization: IB/PM,    7 iter; Final gradient 0.45E-08

 Bond order analysis:       [THRPRINT= 0.020]

   CEN ATOM   CEN ATOM     WIBERG.BO      RENORM.BO
     1   C  -   2   C       0.973542       0.976696
     1   C  -   5   H       0.970340       0.983739
     1   C  -   6   H       0.969167       0.981888
     1   C  -   7   H       0.969167       0.981888

     2   C  -   3   O       1.024944       0.982548
     2   C  -   1   C       0.973542       0.976696
     2   C  -  12   C       0.966307       0.943621
     2   C  -  11   C       0.966307       0.943621

     3   O  -   4   C       1.101098       1.046501
     3   O  -   2   C       1.024944       0.982548
     3   O  -   9   H       0.054962       0.030885
     3   O  -  10   H       0.054962       0.030885
     3   O  -  12   C       0.039291       0.020985
     3   O  -  11   C       0.039291       0.020985
     3   O  -   8   H       0.020007       0.011914

     4   C  -   3   O       1.101098       1.046501
     4   C  -   8   H       0.952645       0.951948
     4   C  -  10   H       0.933485       0.896546
     4   C  -   9   H       0.933485       0.896546

     5   H  -   1   C       0.970340       0.983739

     6   H  -   1   C       0.969167       0.981888

     7   H  -   1   C       0.969167       0.981888

     8   H  -   4   C       0.952645       0.951948
     8   H  -   3   O       0.020007       0.011914

     9   H  -   4   C       0.933485       0.896546
     9   H  -   3   O       0.054962       0.030885

    10   H  -   4   C       0.933485       0.896546
    10   H  -   3   O       0.054962       0.030885

    11   C  -  13   H       0.968811       0.981116
    11   C  -  15   H       0.967903       0.983029
    11   C  -  17   H       0.966663       0.978490
    11   C  -   2   C       0.966307       0.943621
    11   C  -   3   O       0.039291       0.020985

    12   C  -  14   H       0.968811       0.981116
    12   C  -  16   H       0.967903       0.983029
    12   C  -  18   H       0.966663       0.978490
    12   C  -   2   C       0.966307       0.943621
    12   C  -   3   O       0.039291       0.020985

    13   H  -  11   C       0.968811       0.981116

    14   H  -  12   C       0.968811       0.981116

    15   H  -  11   C       0.967903       0.983029

    16   H  -  12   C       0.967903       0.983029

    17   H  -  11   C       0.966663       0.978490

    18   H  -  12   C       0.966663       0.978490


 Valency analysis:

   CEN ATOM   TOT.VALENCE
     1   C       3.952823
     2   C       3.977502
     3   O       2.410269
     4   C       3.947795
     5   H       0.996110
     6   H       0.996047
     7   H       0.996047
     8   H       0.996918
     9   H       0.999468
    10   H       0.999468
    11   C       3.950627
    12   C       3.950627
    13   H       0.996482
    14   H       0.996482
    15   H       0.995976
    16   H       0.995976
    17   H       0.996566
    18   H       0.996566

 Total charge composition:

   CEN ATOM         s          p       ELECTRONS ->P.CHARGE
     1   C       2.88889    3.31325      6.20213   -0.20213
     2   C       2.87985    3.06176      5.94161    0.05839
     3   O       3.56190    4.34800      7.90990    0.09010
     4   C       2.90676    3.25951      6.16627   -0.16627
     5   H       0.93763                 0.93763    0.06237
     6   H       0.93713                 0.93713    0.06287
     7   H       0.93713                 0.93713    0.06287
     8   H       0.94448                 0.94448    0.05552
     9   H       0.97694                 0.97694    0.02306
    10   H       0.97694                 0.97694    0.02306
    11   C       2.88771    3.32856      6.21627   -0.21627
    12   C       2.88771    3.32856      6.21627   -0.21627
    13   H       0.94069                 0.94069    0.05931
    14   H       0.94069                 0.94069    0.05931
    15   H       0.93657                 0.93657    0.06343
    16   H       0.93657                 0.93657    0.06343
    17   H       0.94140                 0.94140    0.05860
    18   H       0.94140                 0.94140    0.05860

 Total charge composition, AO contributions:

   CEN ATOM SHL      SPHERICAL COMPONENTS
     1   C  1s       1.99810
     1   C  2s       0.89078
     1   C  2p       1.12303    1.12282    1.06740

     2   C  1s       1.99844
     2   C  2s       0.88141
     2   C  2p       0.95507    1.05547    1.05123

     3   O  1s       1.99895
     3   O  2s       1.56295
     3   O  2p       1.23969    1.83441    1.27390

     4   C  1s       1.99821
     4   C  2s       0.90855
     4   C  2p       1.13238    1.14517    0.98196

     5   H  1s       0.93763

     6   H  1s       0.93713

     7   H  1s       0.93713

     8   H  1s       0.94448

     9   H  1s       0.97694

    10   H  1s       0.97694

    11   C  1s       1.99813
    11   C  2s       0.88957
    11   C  2p       1.11684    1.09416    1.11756

    12   C  1s       1.99813
    12   C  2s       0.88957
    12   C  2p       1.11684    1.09416    1.11756

    13   H  1s       0.94069

    14   H  1s       0.94069

    15   H  1s       0.93657

    16   H  1s       0.93657

    17   H  1s       0.94140

    18   H  1s       0.94140

 Summary of localized orbital composition:   [THRPRINT= 0.020]

   ORB  GRP  ORB.ENERGY      CENTERS/CHARGES
     1   1   -15.752484      O  3   2.000
     2   1    -7.677792      C  2   2.000
     3   1    -7.668887      C  4   2.000
     4   1    -7.658387      C  1   2.000
     5   1    -7.651418      C 11   2.000
     6   1    -7.651418      C 12   2.000
     7   1    -0.105155      O  3   1.062   C  4   0.927
     8   1    -0.077249      O  3   1.057   C  2   0.910   (other: 0.033)
     9   1     0.003765      C  1   0.992   C  2   0.978   (other: 0.030)
    10   1     0.009884      C 12   1.004   C  2   0.975   (other: 0.021)
    11   1     0.009884      C 11   1.004   C  2   0.975   (other: 0.021)
    12   1     0.033082      C  4   1.063   H  8   0.926
    13   1     0.036493      C  1   1.062   H  6   0.928
    14   1     0.036493      C  1   1.062   H  7   0.928
    15   1     0.036523      C  1   1.061   H  5   0.929
    16   1     0.039051      C 12   1.058   H 14   0.931
    17   1     0.039051      C 11   1.058   H 13   0.931
    18   1     0.039271      C 11   1.058   H 17   0.931
    19   1     0.039271      C 12   1.058   H 18   0.931
    20   1     0.040564      C  4   1.054   H  9   0.943
    21   1     0.040564      C  4   1.054   H 10   0.943
    22   1     0.040912      C 11   1.061   H 15   0.927
    23   1     0.040912      C 12   1.061   H 16   0.927
    24   1     0.227769      O  3   1.940   (other: 0.060)
    25   1     0.435298      O  3   1.834   C  4   0.042   C  2   0.035   H  9   0.026   H 10   0.026   (other: 0.037)

 Localized orbitals saved to record      2200.2  (orbital set 4)


 **********************************************************************************************************************************
 DATASETS  * FILE   NREC   LENGTH (MB)   RECORD NAMES
              1      20       34.09       500      610      700      900      950      970     1000      129      960     1100   
                                          VAR    BASINP    GEOM    SYMINP    ZMAT    AOBASIS   BASIS     P2S    ABASIS      S 
                                         1400     1410     1200     1210     1080     1600     1650     1300     1700     1800   
                                           T        V       H0       H01     AOSYM     SMH    MOLCAS    ERIS     OPER     GRID   

              2       5        3.15       700     1000      520     1800     2200   
                                         GEOM     BASIS   MCVARS    GRID      UKS  

 PROGRAMS   *        TOTAL      IBBA       UKS       INT
 CPU TIMES  *         7.26      0.04      6.23      0.83
 REAL TIME  *        27.04 SEC
 DISK USED  *        42.19 MB      
 **********************************************************************************************************************************
 Molecular orbitals read from record     2200.2  Type=UKS/LOCAL(IBO)  
 Occupation numbers read from record     2200.2  Type=UKS/LOCAL(IBO)  
 Orbital energies read from record       2200.2  Type=UKS/LOCAL(IBO)  
 Redundancy group numbers read from rec  2200.2  Type=UKS/BETA (state 1.1)

 IBBA/STO-3G energy=      0.000000000000

        UKS-SCF 
   -232.66719809
 **********************************************************************************************************************************
 Molpro calculation terminated
