
 Primary working directories    : /tmp/sb13343
 Secondary working directories  : /tmp/sb13343
 Wavefunction directory         : /panfs/panasas01/chem/sb13343/wfu/
 Main file repository           : /tmp/sb13343/

 SHA1      : b4a5b34a9e711420743f49e6833241d17c61fb3c
 NAME      : 2099.9.b4a5b34
 ARCHNAME  : linux/x86_64_openmp
 FC        : /cm/shared/languages/GCC-6.1/bin/gfortran
 BLASLIB   : -lblas
 id        : simonbennie

 Nodes     nprocs
 node32-028    1

 Using customized tuning parameters: mindgm=1; mindgv=20; mindgc=4; mindgr=1; noblas=0; minvec=7
 default implementation of scratch files=df  

 memory,500,m
 geomtyp=xyz
 nosym
 noorient
 geometry={
 H         -1.13405        1.76167        0.00000
 C         -1.32915        0.67205        0.00000
 C         -0.06360       -0.12883        0.00000
 C          0.67426       -0.31636        1.28970
 C          0.67426       -0.31636       -1.28970
 H         -1.94006        0.46750        0.88859
 H         -1.94006        0.46750       -0.88859
 H          1.28359        0.56876        1.55544
 H         -0.01165       -0.48291        2.13019
 H          1.36783       -1.16569        1.24157
 H          1.28359        0.56876       -1.55544
 H         -0.01165       -0.48291       -2.13019
 H          1.36783       -1.16569       -1.24157
 }
 basis={ default,sto-3g }
 {uks,VWN80,direct;wf,33,1,1}
 {ibba,bonds=1}

 Variables initialized (895), CPU time= 0.00 sec
 Commands  initialized (725), CPU time= 0.01 sec, 591 directives.
 Default parameters read. Elapsed time= 0.08 sec

 Checking input...
 Passed
1


                                         ***  PROGRAM SYSTEM MOLPRO  ***
                                       Copyright, TTI GmbH Stuttgart, 2015
                                    Version 2099.9 linked May 26 2017 16:03:21


 **********************************************************************************************************************************
 LABEL *                                                                                 
  64 bit serial version                                                                  DATE: 08-Jun-17          TIME: 20:28:41  
 **********************************************************************************************************************************

 SHA1:             b4a5b34a9e711420743f49e6833241d17c61fb3c
 **********************************************************************************************************************************
 SETTING GEOMTYP        =    XYZ

 Variable memory set to  500000000 words,  buffer space 

 ZSYMEL=NOSYM

 SETTING BASIS          =    STO-3G


 Recomputing integrals since basis changed


 Using spherical harmonics

 Library entry H      S STO-3G               selected for orbital group  1
 Library entry C      S STO-3G               selected for orbital group  2
 Library entry C      P STO-3G               selected for orbital group  2


 PROGRAM * SEWARD (Integral evaluation for generally contracted gaussian basis sets)     Author: Roland Lindh, 1990

 Geometry written to block  1 of record 700


 Point group  C1  



 ATOMIC COORDINATES

 NR  ATOM    CHARGE       X              Y              Z

   1  H       1.00   -2.143043912    3.329073822    0.000000000
   2  C       6.00   -2.511729478    1.269990442    0.000000000
   3  C       6.00   -0.120186582   -0.243453417    0.000000000
   4  C       6.00    1.274166737   -0.597833757    2.437179783
   5  C       6.00    1.274166737   -0.597833757   -2.437179783
   6  H       1.00   -3.666182065    0.883446963    1.679191737
   7  H       1.00   -3.666182065    0.883446963   -1.679191737
   8  H       1.00    2.425633556    1.074800631    2.939355603
   9  H       1.00   -0.022015309   -0.912567643    4.025475693
  10  H       1.00    2.584824085   -2.202834846    2.346227264
  11  H       1.00    2.425633556    1.074800631   -2.939355603
  12  H       1.00   -0.022015309   -0.912567643   -4.025475693
  13  H       1.00    2.584824085   -2.202834846   -2.346227264

 Bond lengths in Bohr (Angstrom)

 1-2  2.091830159  2-3  2.830192527  2-6  2.074092940  2-7  2.074092940  3-4  2.830132841
     ( 1.106948849)     ( 1.497673388)     ( 1.097562717)     ( 1.097562717)     ( 1.497641803)

  3- 5  2.830132841   4- 8  2.091832255   4- 9  2.074085151   4-10  2.074156104   5-11  2.091832255
       ( 1.497641803)       ( 1.106949959)       ( 1.097558596)       ( 1.097596142)       ( 1.106949959)

  5-12  2.074085151   5-13  2.074156104
       ( 1.097558596)       ( 1.097596142)

 Bond angles

  1-2-3  112.17549786   1-2-6  106.35284965   1-2-7  106.35284965   2-3-4  118.89987932

  2-3-5  118.89987932   3-2-6  111.75744418   3-2-7  111.75744418   3-4-8  112.19808176

  3- 4- 9  111.75014522   3- 4-10  111.74379558   3- 5-11  112.19808176   3- 5-12  111.75014522

  3- 5-13  111.74379558   4- 3- 5  118.89276928   6- 2- 7  108.11431090   8- 4- 9  106.34995457

  8- 4-10  106.34572146   9- 4-10  108.12296896  11- 5-12  106.34995457  11- 5-13  106.34572146

 12- 5-13  108.12296896

 NUCLEAR CHARGE:                   33
 NUMBER OF PRIMITIVE AOS:          87
 NUMBER OF SYMMETRY AOS:           87
 NUMBER OF CONTRACTIONS:           29   (  29A   )
 NUMBER OF CORE ORBITALS:           4   (   4A   )
 NUMBER OF VALENCE ORBITALS:       25   (  25A   )


 NUCLEAR REPULSION ENERGY  124.92676597


 Eigenvalues of metric

         1 0.210E+00 0.225E+00 0.225E+00 0.315E+00 0.353E+00 0.353E+00 0.362E+00 0.372E+00


 Contracted 2-electron integrals neglected if value below      1.0D-11
 AO integral compression algorithm  1   Integral accuracy      1.0D-11

     0.786 MB (compressed) written to integral file (100.0%)


 NUMBER OF SORTED TWO-ELECTRON INTEGRALS:      94830.     BUFFER LENGTH:  32768
 NUMBER OF SEGMENTS:   1  SEGMENT LENGTH:      94830      RECORD LENGTH: 524288

 Memory used in sort:       0.65 MW

 SORT1 READ      108770. AND WROTE       91348. INTEGRALS IN      1 RECORDS. CPU TIME:     0.00 SEC, REAL TIME:     0.00 SEC
 SORT2 READ       91348. AND WROTE       94830. INTEGRALS IN      3 RECORDS. CPU TIME:     0.01 SEC, REAL TIME:     0.01 SEC

 FILE SIZES:   FILE 1:    31.0 MBYTE,  FILE 4:     4.2 MBYTE,   TOTAL:     35.2 MBYTE

 OPERATOR DM      FOR CENTER  0  COORDINATES:    0.000000    0.000000    0.000000


 **********************************************************************************************************************************
 DATASETS  * FILE   NREC   LENGTH (MB)   RECORD NAMES
              1      19       30.62       500      610      700      900      950      970     1000      129      960     1100   
                                          VAR    BASINP    GEOM    SYMINP    ZMAT    AOBASIS   BASIS     P2S    ABASIS      S 
                                         1400     1410     1200     1210     1080     1600     1650     1300     1700   
                                           T        V       H0       H01     AOSYM     SMH    MOLCAS    ERIS     OPER   

 PROGRAMS   *        TOTAL       INT
 CPU TIMES  *         0.46      0.32
 REAL TIME  *         0.76 SEC
 DISK USED  *        35.68 MB      
 **********************************************************************************************************************************

 Density functional group VWN80=VWN5
 Functional: VWN5(Automatically generated (new) VWN5)                          Gradient terms: 0
 Use grid at  1800.2

 Functional: VWN5                      Factor:  1.0000

 Generated new metagrid on record  1800.2 with target accuracy 1.0D-06 and 45406 points in CPU time    1.3
 Computed new grid on record 1800.1 in CPU time    1.4
   16410 words reserved for DFT integration

 PROGRAM * UKS-SCF (Unrestricted Kohn-Sham)     Authors: W. Meyer, H.-J. Werner, P.J. Knowles, 1993

 NUMBER OF ELECTRONS:      17+   16-    SPACE SYMMETRY=1    SPIN SYMMETRY: Doublet 
 CONVERGENCE THRESHOLDS:    1.00E-05 (Density)    1.00E-06 (Energy)
 MAX. NUMBER OF ITERATIONS:       60
 INTERPOLATION TYPE:            DIIS
 INTERPOLATION STEPS:              2 (START)      1 (STEP)
 LEVEL SHIFTS:                 -0.20 (ALPHA)  -0.20 (BETA) 



 Use fine grid record 1800.2 for energy threshold  1.0D-06
 Orbital guess generated from atomic densities. Full valence occupancy:   17

 Molecular orbital dump at record        2200.2

 Initial alpha occupation  17
 Initial beta  occupation  16

 ITERATION    DDIFF          GRAD             ENERGY        2-EL.EN.            DIPOLE MOMENTS         DIIS
    1      0.000D+00      0.000D+00      -132.89913880    402.031924    0.14172    0.28668   -0.00000    0
    2      0.360D-01      0.129D-01      -132.97473281    394.529677   -0.00075   -0.00138   -0.00000    1
    3      0.966D-02      0.467D-02      -132.98523497    396.451348    0.02946    0.05972   -0.00000    2
    4      0.837D-03      0.421D-03      -132.98536688    396.413565    0.02922    0.05924   -0.00000    3
    5      0.325D-03      0.178D-03      -132.98539262    396.424681    0.02823    0.05724   -0.00000    4
    6      0.204D-03      0.754D-04      -132.98539824    396.418027    0.02808    0.05693   -0.00000    5
    7      0.202D-04      0.802D-05      -132.98539832    396.418633    0.02810    0.05697   -0.00000    6
    8      0.530D-05      0.177D-05      -132.98539832    396.418660    0.02809    0.05696   -0.00000    5
    9      0.112D-05      0.328D-06      -132.98539832    396.418712    0.02810    0.05698   -0.00000    6

 Final alpha occupancy:  17
 Final beta  occupancy:  16

 !UKS STATE 1.1 Energy               -132.985398321576
 Nuclear energy                       124.92676597
 One-electron energy                 -454.09225534
 Two-electron energy                  198.20935612
 Density functional                    -2.02926507     VWN5=-2.02926507
 Virial quotient                       -0.88544389
 !UKS STATE 1.1 Dipole moment           0.02810385     0.05698077    -0.00000000
 Dipole moment /Debye                   0.07142819     0.14482117    -0.00000000

 Orbital energies for positive spin:

         1.1          2.1          3.1          4.1          5.1          6.1          7.1          8.1          9.1         10.1
     -7.742959    -7.742710    -7.742705    -7.659227    -0.204146    -0.117227    -0.117214     0.037040     0.075894     0.084042

        11.1         12.1         13.1         14.1         15.1         16.1         17.1         18.1         19.1
      0.084047     0.138334     0.138380     0.164738     0.210546     0.210552     0.436367     0.806295     0.806310

 Orbital energies for negative spin:

         1.1          2.1          3.1          4.1          5.1          6.1          7.1          8.1          9.1         10.1
     -7.743016    -7.742750    -7.742745    -7.661506    -0.207717    -0.118534    -0.118520     0.033118     0.071642     0.082733

        11.1         12.1         13.1         14.1         15.1         16.1         17.1         18.1         19.1
      0.082739     0.136706     0.136752     0.164167     0.208177     0.208183     0.418585     0.805039     0.805054

 HOMO     17.1     0.436367 =      11.8742eV
 LUMO    -17.1     0.418585 =      11.3903eV
 LUMO-HOMO        -0.017782 =      -0.4839eV

 EXPECTATION VALUE OF S**2:             0.75009444

 Occupation number threshold for canonical orbitals:  1.999000 (occupied),  0.001000 (virtual)

 Number of pseudo-canonical orbitals per symmetry:   16
 Number of active natural orbitals per symmetry:      1

 Natural orbitals saved to record    2200.2 (Orbital set 3)

 Orbital spaces for UNO-CAS (Min. occupation: 0.020  Max. occupation: 1.980):

 Closed:       16
 Active:        1


 **********************************************************************************************************************************
 DATASETS  * FILE   NREC   LENGTH (MB)   RECORD NAMES
              1      20       32.07       500      610      700      900      950      970     1000      129      960     1100   
                                          VAR    BASINP    GEOM    SYMINP    ZMAT    AOBASIS   BASIS     P2S    ABASIS      S 
                                         1400     1410     1200     1210     1080     1600     1650     1300     1700     1800   
                                           T        V       H0       H01     AOSYM     SMH    MOLCAS    ERIS     OPER     GRID   

              2       5        3.00       700     1000      520     1800     2200   
                                         GEOM     BASIS   MCVARS    GRID      UKS  

 PROGRAMS   *        TOTAL       UKS       INT
 CPU TIMES  *         3.67      3.21      0.32
 REAL TIME  *         4.07 SEC
 DISK USED  *        35.68 MB      
 **********************************************************************************************************************************


 PROGRAM * Intrinsic Basis Bonding Analysis (IBBA)          Author: G. Knizia

 Molecular orbitals read from record     2200.2  Type=UKS/ALPHA (state 1.1)
 Fock matrix read from record            2200.2  Type=UKS/TOTAL (state 1.1)
 Orbital energies read from record       2200.2  Type=UKS/ALPHA (state 1.1)
 Density matrix read from record         2200.2  Type=UKS/CHARGE (state 1.1)

 Number of core orbitals:           4 (   4 )
 Number of closed-shell orbitals:  12 (  12 )
 Number of active  orbitals:        1 (   1 )

 Basis set MINAO-AUTO-PP generated.      Number of basis functions:   29 

 Polarized AO type:                A = (O Ot + (1-O)(1-Ot)) P12
 Orthogonalization method:         Symmetric (Loewdin)
 Localization functional:          L = sum[A,i] <i|n_A|i>^4 -> max

 Localization group 1:  16 orbitals, occupancy  2.000
 Iterative localization: IB/PM,    7 iter; Final gradient 0.88E-08

 Bond order analysis:       [THRPRINT= 0.020]

   CEN ATOM   CEN ATOM     WIBERG.BO      RENORM.BO
     1   H  -   2   C       0.912930       0.997427
     1   H  -   3   C       0.045922       0.178834

     2   C  -   3   C       1.085917       1.319889
     2   C  -   7   H       0.957467       0.986187
     2   C  -   6   H       0.957467       0.986187
     2   C  -   1   H       0.912930       0.997427

     3   C  -   2   C       1.085917       1.319889
     3   C  -   5   C       1.085894       1.319834
     3   C  -   4   C       1.085894       1.319834
     3   C  -   1   H       0.045922       0.178834
     3   C  -   8   H       0.045886       0.178691
     3   C  -  11   H       0.045886       0.178691

     4   C  -   3   C       1.085894       1.319834
     4   C  -   9   H       0.957508       0.986177
     4   C  -  10   H       0.957402       0.986205
     4   C  -   8   H       0.912969       0.997423

     5   C  -   3   C       1.085894       1.319834
     5   C  -  12   H       0.957508       0.986177
     5   C  -  13   H       0.957402       0.986205
     5   C  -  11   H       0.912969       0.997423

     6   H  -   2   C       0.957467       0.986187

     7   H  -   2   C       0.957467       0.986187

     8   H  -   4   C       0.912969       0.997423
     8   H  -   3   C       0.045886       0.178691

     9   H  -   4   C       0.957508       0.986177

    10   H  -   4   C       0.957402       0.986205

    11   H  -   5   C       0.912969       0.997423
    11   H  -   3   C       0.045886       0.178691

    12   H  -   5   C       0.957508       0.986177

    13   H  -   5   C       0.957402       0.986205


 Valency analysis:

   CEN ATOM   TOT.VALENCE
     1   H       0.985984
     2   C       3.950595
     3   C       3.467181
     4   C       3.950590
     5   C       3.950590
     6   H       0.994253
     7   H       0.994253
     8   H       0.985988
     9   H       0.994261
    10   H       0.994245
    11   H       0.985988
    12   H       0.994261
    13   H       0.994245
 Localization group 2:   1 orbitals, occupancy  1.000
 Iterative localization: IB/PM,    1 iter; Final gradient 0.00E+00

 Bond order analysis:       [THRPRINT= 0.020]

   CEN ATOM   CEN ATOM     WIBERG.BO      RENORM.BO
     1   H  -   3   C       0.083918       0.500000


     3   C  -   1   H       0.083918       0.500000
     3   C  -  11   H       0.083910       0.500000
     3   C  -   8   H       0.083910       0.500000





     8   H  -   3   C       0.083910       0.500000



    11   H  -   3   C       0.083910       0.500000




 Valency analysis:

   CEN ATOM   TOT.VALENCE
     1   H       0.105399
     2   C       0.004765
     3   C       0.373242
     4   C       0.004749
     5   C       0.004749
     6   H       0.024244
     7   H       0.024244
     8   H       0.105390
     9   H       0.024160
    10   H       0.024358
    11   H       0.105390
    12   H       0.024160
    13   H       0.024358

 Total charge composition:

   CEN ATOM         s          p       ELECTRONS ->P.CHARGE
     1   H       0.93743                 0.93743    0.06257
     2   C       2.88345    3.32968      6.21313   -0.21313
     3   C       2.89653    3.03297      5.92949    0.07051
     4   C       2.88344    3.32969      6.21313   -0.21313
     5   C       2.88344    3.32969      6.21313   -0.21313
     6   H       0.93647                 0.93647    0.06353
     7   H       0.93647                 0.93647    0.06353
     8   H       0.93744                 0.93744    0.06256
     9   H       0.93647                 0.93647    0.06353
    10   H       0.93647                 0.93647    0.06353
    11   H       0.93744                 0.93744    0.06256
    12   H       0.93647                 0.93647    0.06353
    13   H       0.93647                 0.93647    0.06353

 Total charge composition, AO contributions:

   CEN ATOM SHL      SPHERICAL COMPONENTS
     1   H  1s       0.93743

     2   C  1s       1.99799
     2   C  2s       0.88546
     2   C  2p       1.10341    1.10472    1.12155

     3   C  1s       1.99832
     3   C  2s       0.89821
     3   C  2p       1.00876    1.01862    1.00558

     4   C  1s       1.99799
     4   C  2s       0.88545
     4   C  2p       1.11288    1.11333    1.10348

     5   C  1s       1.99799
     5   C  2s       0.88545
     5   C  2p       1.11288    1.11333    1.10348

     6   H  1s       0.93647

     7   H  1s       0.93647

     8   H  1s       0.93744

     9   H  1s       0.93647

    10   H  1s       0.93647

    11   H  1s       0.93744

    12   H  1s       0.93647

    13   H  1s       0.93647

 Active orbital charges:

   CEN ATOM         s          p       ELECTRONS ->SPIN.DEN
     1   H       0.05581                 0.05581    0.05581
     2   C       0.00006    0.00232      0.00239    0.00239
     3   C       0.01178    0.73997      0.75175    0.75175
     4   C       0.00006    0.00232      0.00238    0.00238
     5   C       0.00006    0.00232      0.00238    0.00238
     6   H       0.01227                 0.01227    0.01227
     7   H       0.01227                 0.01227    0.01227
     8   H       0.05581                 0.05581    0.05581
     9   H       0.01223                 0.01223    0.01223
    10   H       0.01233                 0.01233    0.01233
    11   H       0.05581                 0.05581    0.05581
    12   H       0.01223                 0.01223    0.01223
    13   H       0.01233                 0.01233    0.01233

 Active orbital charges, AO contributions:

   CEN ATOM SHL      SPHERICAL COMPONENTS
     1   H  1s       0.05581

     2   C  1s       0.00000
     2   C  2s       0.00006
     2   C  2p       0.00002    0.00230    0.00000

     3   C  1s       0.00000
     3   C  2s       0.01178
     3   C  2p       0.14481    0.59516    0.00000

     4   C  1s       0.00000
     4   C  2s       0.00006
     4   C  2p       0.00076    0.00135    0.00021

     5   C  1s       0.00000
     5   C  2s       0.00006
     5   C  2p       0.00076    0.00135    0.00021

     6   H  1s       0.01227

     7   H  1s       0.01227

     8   H  1s       0.05581

     9   H  1s       0.01223

    10   H  1s       0.01233

    11   H  1s       0.05581

    12   H  1s       0.01223

    13   H  1s       0.01233

 Summary of localized orbital composition:   [THRPRINT= 0.020]

   ORB  GRP  ORB.ENERGY      CENTERS/CHARGES
     1   1    -7.657979      C  2   2.000
     2   1    -7.657971      C  5   2.000
     3   1    -7.657971      C  4   2.000
     4   1    -7.582579      C  3   2.000
     5   1     0.005541      C  4   1.026   C  3   0.957
     6   1     0.005541      C  5   1.026   C  3   0.957
     7   1     0.005556      C  2   1.026   C  3   0.957
     8   1     0.032390      C  2   1.053   H  1   0.873   C  3   0.067
     9   1     0.032403      C  5   1.053   H 11   0.873   C  3   0.067
    10   1     0.032403      C  4   1.053   H  8   0.873   C  3   0.067
    11   1     0.041023      C  2   1.061   H  6   0.915   (other: 0.024)
    12   1     0.041023      C  2   1.061   H  7   0.915   (other: 0.024)
    13   1     0.041033      C  4   1.061   H 10   0.915   (other: 0.024)
    14   1     0.041033      C  5   1.061   H 13   0.915   (other: 0.024)
    15   1     0.041034      C  5   1.061   H 12   0.915   (other: 0.024)
    16   1     0.041034      C  4   1.061   H  9   0.915   (other: 0.024)
    17   2     0.427456      C  3   0.752   H  1   0.056   H 11   0.056   H  8   0.056   (other: 0.081)

 Localized orbitals saved to record      2200.2  (orbital set 4)


 **********************************************************************************************************************************
 DATASETS  * FILE   NREC   LENGTH (MB)   RECORD NAMES
              1      20       32.07       500      610      700      900      950      970     1000      129      960     1100   
                                          VAR    BASINP    GEOM    SYMINP    ZMAT    AOBASIS   BASIS     P2S    ABASIS      S 
                                         1400     1410     1200     1210     1080     1600     1650     1300     1700     1800   
                                           T        V       H0       H01     AOSYM     SMH    MOLCAS    ERIS     OPER     GRID   

              2       5        3.01       700     1000      520     1800     2200   
                                         GEOM     BASIS   MCVARS    GRID      UKS  

 PROGRAMS   *        TOTAL      IBBA       UKS       INT
 CPU TIMES  *         3.70      0.03      3.21      0.32
 REAL TIME  *         4.17 SEC
 DISK USED  *        35.68 MB      
 **********************************************************************************************************************************
 Molecular orbitals read from record     2200.2  Type=UKS/LOCAL(IBO)  
 Occupation numbers read from record     2200.2  Type=UKS/LOCAL(IBO)  
 Orbital energies read from record       2200.2  Type=UKS/LOCAL(IBO)  
 Redundancy group numbers read from rec  2200.2  Type=UKS/BETA (state 1.1)

 IBBA/STO-3G energy=      0.000000000000

        UKS-SCF 
   -132.98539832
 **********************************************************************************************************************************
 Molpro calculation terminated
