
 Primary working directories    : /local
 Secondary working directories  : /local
 Wavefunction directory         : /local/
 Main file repository           : /local/

 SHA1      : b4a5b34a9e711420743f49e6833241d17c61fb3c
 NAME      : 2099.9.b4a5b34
 ARCHNAME  : linux/x86_64_openmp
 FC        : /cm/shared/languages/GCC-6.1/bin/gfortran
 BLASLIB   : -lblas
 id        : simonbennie

 Nodes     nprocs
 node33-010    1

 Using customized tuning parameters: mindgm=1; mindgv=20; mindgc=4; mindgr=1; noblas=0; minvec=7
 default implementation of scratch files=df  

 memory,500,m
 geomtyp=xyz
 nosym
 noorient
 geometry={
 C         -1.53233        0.02247        0.00000
 C         -0.00192        0.01421        0.00000
 O          0.37239        1.40356        0.00000
 H          1.34248        1.44036        0.00000
 H         -1.92991       -0.99819        0.00000
 H         -1.90797        0.54382       -0.88653
 H         -1.90797        0.54382        0.88653
 C          0.54303       -0.66466       -1.26580
 C          0.54303       -0.66466        1.26580
 H          0.17836       -0.14752       -2.15943
 H          0.17836       -0.14752        2.15943
 H          0.23752       -1.71600       -1.32280
 H          0.23752       -1.71600        1.32280
 H          1.64084       -0.63767       -1.28032
 H          1.64084       -0.63767        1.28032
 }
 basis={ default,tzvp }
 {ks,B3LYP5,direct;wf,42,1,0}
 {ibba,bonds=1}

 Variables initialized (895), CPU time= 0.01 sec
 Commands  initialized (725), CPU time= 0.01 sec, 591 directives.
 Default parameters read. Elapsed time= 0.09 sec

 Checking input...
 Passed
1


                                         ***  PROGRAM SYSTEM MOLPRO  ***
                                       Copyright, TTI GmbH Stuttgart, 2015
                                    Version 2099.9 linked May 26 2017 16:03:21


 **********************************************************************************************************************************
 LABEL *                                                                                 
  64 bit serial version                                                                  DATE: 12-Jun-17          TIME: 20:03:52  
 **********************************************************************************************************************************

 SHA1:             b4a5b34a9e711420743f49e6833241d17c61fb3c
 **********************************************************************************************************************************
 SETTING GEOMTYP        =    XYZ

 Variable memory set to  500000000 words,  buffer space 

 ZSYMEL=NOSYM

 SETTING BASIS          =    TZVP


 Recomputing integrals since basis changed


 Using spherical harmonics

 Library entry C      S def2-TZVP            selected for orbital group  1
 Library entry C      P def2-TZVP            selected for orbital group  1
 Library entry C      D def2-TZVP            selected for orbital group  1
 Library entry C      F def2-TZVP            selected for orbital group  1
 Library entry O      S def2-TZVP            selected for orbital group  2
 Library entry O      P def2-TZVP            selected for orbital group  2
 Library entry O      D def2-TZVP            selected for orbital group  2
 Library entry O      F def2-TZVP            selected for orbital group  2
 Library entry H      S def2-TZVP            selected for orbital group  3
 Library entry H      P def2-TZVP            selected for orbital group  3


 PROGRAM * SEWARD (Integral evaluation for generally contracted gaussian basis sets)     Author: Roland Lindh, 1990

 Geometry written to block  1 of record 700


 Point group  C1  



 ATOMIC COORDINATES

 NR  ATOM    CHARGE       X              Y              Z

   1  C       6.00   -2.895684032    0.042462146    0.000000000
   2  C       6.00   -0.003628274    0.026853008    0.000000000
   3  O       8.00    0.703715112    2.652343999    0.000000000
   4  H       1.00    2.536919528    2.721885921    0.000000000
   5  H       1.00   -3.647001345   -1.886305720    0.000000000
   6  H       1.00   -3.605540754    1.027670861   -1.675298901
   7  H       1.00   -3.605540754    1.027670861    1.675298901
   8  C       6.00    1.026177977   -1.256025366   -2.392015328
   9  C       6.00    1.026177977   -1.256025366    2.392015328
  10  H       1.00    0.337051552   -0.278772398   -4.080731285
  11  H       1.00    0.337051552   -0.278772398    4.080731285
  12  H       1.00    0.448847749   -3.242770030   -2.499729718
  13  H       1.00    0.448847749   -3.242770030    2.499729718
  14  H       1.00    3.100738214   -1.205021658   -2.419454152
  15  H       1.00    3.100738214   -1.205021658    2.419454152

 Bond lengths in Bohr (Angstrom)

 1-2  2.892097881  1-5  2.069933136  1-6  2.069096224  1-7  2.069096224  2-3  2.719106031
     ( 1.530432290)     ( 1.095361444)     ( 1.094918569)     ( 1.094918569)     ( 1.438888946)

  2- 8  2.903104402   2- 9  2.903104402   3- 4  1.834522965   8-10  2.069222119   8-12  2.071730422
       ( 1.536256691)       ( 1.536256691)       ( 0.970787746)       ( 1.094985190)       ( 1.096312526)

  8-14  2.075368508   9-11  2.069222119   9-13  2.071730422   9-15  2.075368508
       ( 1.098237719)       ( 1.094985190)       ( 1.096312526)       ( 1.098237719)

 Bond angles

  1-2-3  104.76902697   1-2-8  110.92255387   1-2-9  110.92255387   2-1-5  110.97328220

  2- 1- 6  110.22090701   2- 1- 7  110.22090701   2- 3- 4  107.25071562   2- 8-10  110.21836376

  2- 8-12  111.57747468   2- 8-14  110.77023896   2- 9-11  110.21836376   2- 9-13  111.57747468

  2- 9-15  110.77023896   3- 2- 8  109.53648747   3- 2- 9  109.53648747   5- 1- 6  108.61190457

  5- 1- 7  108.61190457   6- 1- 7  108.12870271   8- 2- 9  110.96453384  10- 8-12  108.52192632

 10- 8-14  108.08997829  11- 9-13  108.52192632  11- 9-15  108.08997829  12- 8-14  107.54424578

 13- 9-15  107.54424578

 NUCLEAR CHARGE:                   42
 NUMBER OF PRIMITIVE AOS:         335
 NUMBER OF SYMMETRY AOS:          310
 NUMBER OF CONTRACTIONS:          215   ( 215A   )
 NUMBER OF CORE ORBITALS:           5   (   5A   )
 NUMBER OF VALENCE ORBITALS:       30   (  30A   )


 NUCLEAR REPULSION ENERGY  198.77359127


 Eigenvalues of metric

         1 0.262E-03 0.510E-03 0.539E-03 0.594E-03 0.697E-03 0.755E-03 0.210E-02 0.239E-02


 Contracted 2-electron integrals neglected if value below      1.0D-11
 AO integral compression algorithm  1   Integral accuracy      1.0D-11

     977.797 MB (compressed) written to integral file ( 41.7%)


 NUMBER OF SORTED TWO-ELECTRON INTEGRALS:  269595810.     BUFFER LENGTH:  32768
 NUMBER OF SEGMENTS:  17  SEGMENT LENGTH:   15999762      RECORD LENGTH: 524288

 Memory used in sort:      16.56 MW

 SORT1 READ   292827432. AND WROTE   238500613. INTEGRALS IN    690 RECORDS. CPU TIME:     3.32 SEC, REAL TIME:     6.48 SEC
 SORT2 READ   238500613. AND WROTE   269595810. INTEGRALS IN   3730 RECORDS. CPU TIME:     5.36 SEC, REAL TIME:     6.83 SEC

 FILE SIZES:   FILE 1:  1009.7 MBYTE,  FILE 4:  2894.1 MBYTE,   TOTAL:   3903.8 MBYTE

 OPERATOR DM      FOR CENTER  0  COORDINATES:    0.000000    0.000000    0.000000


 **********************************************************************************************************************************
 DATASETS  * FILE   NREC   LENGTH (MB)   RECORD NAMES
              1      19      926.27       500      610      700      900      950      970     1000      129      960     1100   
                                          VAR    BASINP    GEOM    SYMINP    ZMAT    AOBASIS   BASIS     P2S    ABASIS      S 
                                         1400     1410     1200     1210     1080     1600     1650     1300     1700   
                                           T        V       H0       H01     AOSYM     SMH    MOLCAS    ERIS     OPER   

 PROGRAMS   *        TOTAL       INT
 CPU TIMES  *        24.87     24.73
 REAL TIME  *        55.21 SEC
 DISK USED  *         3.90 GB      
 **********************************************************************************************************************************

 Density functional group B3LYP5=B88+DIRAC+LYP+VWN5
 Functional: B88(Automatically generated (new) B88)                            Gradient terms: 1
 Functional: DIRAC(Automatically generated (new) DIRAC)                        Gradient terms: 0
 Functional: LYP(Automatically generated (new) LYP)                            Gradient terms: 1
 Functional: VWN5(Automatically generated (new) VWN5)                          Gradient terms: 0
 Use grid at  1800.2


 Exact exchange will be calculated, factor:  0.2000

 Functional: B88                       Factor:  0.7200
 Functional: DIRAC                     Factor:  0.0800
 Functional: LYP                       Factor:  0.8100
 Functional: VWN5                      Factor:  0.1900

 Generated new metagrid on record  1800.2 with target accuracy 1.0D-06 and 54596 points in CPU time    1.6
 Computed new grid on record 1800.1 in CPU time    1.8
  175219 words reserved for DFT integration

 PROGRAM * RKS-SCF (Restricted closed shell Kohn-Sham)     Authors: W. Meyer, H.-J. Werner, P.J. Knowles, 1993

 NUMBER OF ELECTRONS:      21+   21-    SPACE SYMMETRY=1    SPIN SYMMETRY: Singlet 
 CONVERGENCE THRESHOLDS:    1.00E-05 (Density)    1.00E-06 (Energy)
 MAX. NUMBER OF ITERATIONS:       60
 INTERPOLATION TYPE:            DIIS
 INTERPOLATION STEPS:              2 (START)      1 (STEP)
 LEVEL SHIFTS:                  0.00 (CLOSED)  0.00 (OPEN) 



 Use fine grid record 1800.2 for energy threshold  1.0D-06
 Orbital guess generated from atomic densities. Full valence occupancy:   21

 Molecular orbital dump at record        2100.2

 Initial occupancy:  21

 ITERATION    DDIFF          GRAD             ENERGY        2-EL.EN.            DIPOLE MOMENTS         DIIS   ORB.
    1      0.000D+00      0.000D+00      -233.39277704    624.402965    0.70774   -0.83635    0.00000    0    start
    2      0.000D+00      0.757D-02      -233.23024098    588.157649   -0.21549    0.03792    0.00000    1    diag
    3      0.112D-01      0.100D-01      -233.61603187    609.890008    0.38917   -0.61439    0.00000    2    diag
    4      0.800D-02      0.115D-02      -233.61970404    609.063496    0.35058   -0.46059    0.00000    3    diag
    5      0.652D-03      0.386D-03      -233.62014237    608.956680    0.34968   -0.51871    0.00000    4    diag
    6      0.202D-03      0.100D-03      -233.62017554    609.065159    0.35178   -0.50875    0.00000    5    diag
    7      0.526D-04      0.305D-04      -233.62017849    609.052063    0.35225   -0.50751    0.00000    6    diag
    8      0.112D-04      0.300D-05      -233.62017853    609.057501    0.35210   -0.50879    0.00000    7    diag
    9      0.315D-05      0.868D-06      -233.62017853    609.056843    0.35223   -0.50815    0.00000    0    orth

 Final occupancy:  21

 !RKS STATE 1.1 Energy               -233.620178533325
 Nuclear energy                       198.77359127
 One-electron energy                 -709.49863829
 Two-electron energy                  304.52842138
 SCF exchange energy                  -32.51822605     Factor= 0.2000
 Density functional                   -27.42355290     B88=-32.57963667 DIRAC=-29.35939619 LYP= -1.37426769 VWN5= -2.65424196
 Virial quotient                       -1.00502671
 !RKS STATE 1.1 Dipole moment           0.35223487    -0.50814767     0.00000000
 Dipole moment /Debye                   0.89523310    -1.29149796     0.00000000

 Orbital energies:

         1.1          2.1          3.1          4.1          5.1          6.1          7.1          8.1          9.1         10.1
    -19.116938   -10.227426   -10.160082   -10.160075   -10.154747    -1.015107    -0.785857    -0.690391    -0.689243    -0.567332

        11.1         12.1         13.1         14.1         15.1         16.1         17.1         18.1         19.1         20.1
     -0.488449    -0.451211    -0.448450    -0.412137    -0.397804    -0.379795    -0.366805    -0.355412    -0.348644    -0.320280

        21.1         22.1         23.1
     -0.272356     0.019566     0.065991

 HOMO     21.1    -0.272356 =      -7.4112eV
 LUMO     22.1     0.019566 =       0.5324eV
 LUMO-HOMO         0.291922 =       7.9436eV


 **********************************************************************************************************************************
 DATASETS  * FILE   NREC   LENGTH (MB)   RECORD NAMES
              1      20      928.02       500      610      700      900      950      970     1000      129      960     1100   
                                          VAR    BASINP    GEOM    SYMINP    ZMAT    AOBASIS   BASIS     P2S    ABASIS      S 
                                         1400     1410     1200     1210     1080     1600     1650     1300     1700     1800   
                                           T        V       H0       H01     AOSYM     SMH    MOLCAS    ERIS     OPER     GRID   

              2       5        3.96       700     1000      520     1800     2100   
                                         GEOM     BASIS   MCVARS    GRID      RKS  

 PROGRAMS   *        TOTAL        KS       INT
 CPU TIMES  *        83.50     58.63     24.73
 REAL TIME  *       115.25 SEC
 DISK USED  *         3.90 GB      
 **********************************************************************************************************************************


 PROGRAM * Intrinsic Basis Bonding Analysis (IBBA)          Author: G. Knizia

 Molecular orbitals read from record     2100.2  Type=RKS/CANONICAL (state 1.1)
 Fock matrix read from record            2100.2  Type=RKS/TOTAL (state 1.1)
 Orbital energies read from record       2100.2  Type=RKS/CANONICAL (state 1.1)
 Density matrix read from record         2100.2  Type=RKS/CHARGE (state 1.1)

 Number of core orbitals:           5 (   5 )
 Number of closed-shell orbitals:  16 (  16 )

 Basis set MINAO-AUTO-PP generated.      Number of basis functions:   35 

 Polarized AO type:                A = (O Ot + (1-O)(1-Ot)) P12
 Orthogonalization method:         Symmetric (Loewdin)
 Localization functional:          L = sum[A,i] <i|n_A|i>^4 -> max

 Localization group 1:  21 orbitals, occupancy  2.000
 Iterative localization: IB/PM,    7 iter; Final gradient 0.26E-08

 Bond order analysis:       [THRPRINT= 0.020]

   CEN ATOM   CEN ATOM     WIBERG.BO      RENORM.BO
     1   C  -   2   C       0.996208       0.993894
     1   C  -   5   H       0.963992       0.987130
     1   C  -   6   H       0.959274       0.981751
     1   C  -   7   H       0.959274       0.981751

     2   C  -   1   C       0.996208       0.993894
     2   C  -   9   C       0.995061       0.976304
     2   C  -   8   C       0.995061       0.976304
     2   C  -   3   O       0.932460       0.951031

     3   O  -   2   C       0.932460       0.951031
     3   O  -   4   H       0.863623       0.976194
     3   O  -   8   C       0.027354       0.013987
     3   O  -   9   C       0.027354       0.013987

     4   H  -   3   O       0.863623       0.976194

     5   H  -   1   C       0.963992       0.987130

     6   H  -   1   C       0.959274       0.981751

     7   H  -   1   C       0.959274       0.981751

     8   C  -   2   C       0.995061       0.976304
     8   C  -  14   H       0.963462       0.982405
     8   C  -  12   H       0.959847       0.981614
     8   C  -  10   H       0.959784       0.981634
     8   C  -   3   O       0.027354       0.013987

     9   C  -   2   C       0.995061       0.976304
     9   C  -  15   H       0.963462       0.982405
     9   C  -  13   H       0.959847       0.981614
     9   C  -  11   H       0.959784       0.981634
     9   C  -   3   O       0.027354       0.013987

    10   H  -   8   C       0.959784       0.981634

    11   H  -   9   C       0.959784       0.981634

    12   H  -   8   C       0.959847       0.981614

    13   H  -   9   C       0.959847       0.981614

    14   H  -   8   C       0.963462       0.982405

    15   H  -   9   C       0.963462       0.982405


 Valency analysis:

   CEN ATOM   TOT.VALENCE
     1   C       3.938021
     2   C       3.928841
     3   O       1.917009
     4   H       0.883276
     5   H       0.982447
     6   H       0.979756
     7   H       0.979756
     8   C       3.940648
     9   C       3.940648
    10   H       0.979762
    11   H       0.979762
    12   H       0.981628
    13   H       0.981628
    14   H       0.983919
    15   H       0.983919

 Total charge composition:

   CEN ATOM         s          p       ELECTRONS ->P.CHARGE
     1   C       3.04109    3.36859      6.40968   -0.40968
     2   C       2.93827    2.80114      5.73941    0.26059
     3   O       3.64824    4.92495      8.57319   -0.57319
     4   H       0.65835                 0.65835    0.34165
     5   H       0.86751                 0.86751    0.13249
     6   H       0.85772                 0.85772    0.14228
     7   H       0.85772                 0.85772    0.14228
     8   C       3.04743    3.37539      6.42283   -0.42283
     9   C       3.04743    3.37539      6.42283   -0.42283
    10   H       0.85774                 0.85774    0.14226
    11   H       0.85774                 0.85774    0.14226
    12   H       0.86446                 0.86446    0.13554
    13   H       0.86446                 0.86446    0.13554
    14   H       0.87319                 0.87319    0.12681
    15   H       0.87319                 0.87319    0.12681

 Total charge composition, AO contributions:

   CEN ATOM SHL      SPHERICAL COMPONENTS
     1   C  1s       1.99121
     1   C  2s       1.04988
     1   C  2p       1.03769    1.15907    1.17183

     2   C  1s       1.99284
     2   C  2s       0.94543
     2   C  2p       1.00712    0.78433    1.00969

     3   O  1s       1.99715
     3   O  2s       1.65109
     3   O  2p       1.47281    1.49538    1.95676

     4   H  1s       0.65835

     5   H  1s       0.86751

     6   H  1s       0.85772

     7   H  1s       0.85772

     8   C  1s       1.99131
     8   C  2s       1.05612
     8   C  2p       1.14132    1.14126    1.09281

     9   C  1s       1.99131
     9   C  2s       1.05612
     9   C  2p       1.14132    1.14126    1.09281

    10   H  1s       0.85774

    11   H  1s       0.85774

    12   H  1s       0.86446

    13   H  1s       0.86446

    14   H  1s       0.87319

    15   H  1s       0.87319

 Summary of localized orbital composition:   [THRPRINT= 0.020]

   ORB  GRP  ORB.ENERGY      CENTERS/CHARGES
     1   1   -18.957163      O  3   2.000
     2   1   -10.135516      C  2   2.000
     3   1   -10.045127      C  9   2.000
     4   1   -10.045127      C  8   2.000
     5   1   -10.039001      C  1   2.000
     6   1    -0.760260      O  3   1.344   H  4   0.647
     7   1    -0.718175      O  3   1.287   C  2   0.695
     8   1    -0.574578      O  3   1.982
     9   1    -0.573130      C  8   1.008   C  2   0.978
    10   1    -0.573130      C  9   1.008   C  2   0.978
    11   1    -0.572401      C  1   0.990   C  2   0.986   (other: 0.023)
    12   1    -0.505762      C  8   1.131   H 12   0.855
    13   1    -0.505762      C  9   1.131   H 13   0.855
    14   1    -0.504021      C  8   1.122   H 14   0.866
    15   1    -0.504021      C  9   1.122   H 15   0.866
    16   1    -0.501367      C  1   1.126   H  5   0.861
    17   1    -0.499761      C  9   1.140   H 11   0.850
    18   1    -0.499761      C  8   1.140   H 10   0.850
    19   1    -0.494980      C  1   1.139   H  6   0.850
    20   1    -0.494980      C  1   1.139   H  7   0.850
    21   1    -0.304517      O  3   1.957   (other: 0.043)

 Localized orbitals saved to record      2100.2  (orbital set 2)


 **********************************************************************************************************************************
 DATASETS  * FILE   NREC   LENGTH (MB)   RECORD NAMES
              1      20      928.02       500      610      700      900      950      970     1000      129      960     1100   
                                          VAR    BASINP    GEOM    SYMINP    ZMAT    AOBASIS   BASIS     P2S    ABASIS      S 
                                         1400     1410     1200     1210     1080     1600     1650     1300     1700     1800   
                                           T        V       H0       H01     AOSYM     SMH    MOLCAS    ERIS     OPER     GRID   

              2       5        4.33       700     1000      520     1800     2100   
                                         GEOM     BASIS   MCVARS    GRID      RKS  

 PROGRAMS   *        TOTAL      IBBA        KS       INT
 CPU TIMES  *        83.57      0.07     58.63     24.73
 REAL TIME  *       115.41 SEC
 DISK USED  *         3.90 GB      
 **********************************************************************************************************************************
 Molecular orbitals read from record     2100.2  Type=RKS/LOCAL(IBO)  
 Occupation numbers read from record     2100.2  Type=RKS/LOCAL(IBO)  
 Orbital energies read from record       2100.2  Type=RKS/LOCAL(IBO)  
 Redundancy group numbers read from rec  2100.2  Type=RKS/LOCAL(IBO)  

 IBBA/TZVP energy=      0.000000000000

        KS-SCF  
   -233.62017853
 **********************************************************************************************************************************
 Molpro calculation terminated
