
 Primary working directories    : /local
 Secondary working directories  : /local
 Wavefunction directory         : /local/
 Main file repository           : /local/

 SHA1      : b4a5b34a9e711420743f49e6833241d17c61fb3c
 NAME      : 2099.9.b4a5b34
 ARCHNAME  : linux/x86_64_openmp
 FC        : /cm/shared/languages/GCC-6.1/bin/gfortran
 BLASLIB   : -lblas
 id        : simonbennie

 Nodes     nprocs
 node33-011    1

 Using customized tuning parameters: mindgm=1; mindgv=20; mindgc=4; mindgr=1; noblas=0; minvec=7
 default implementation of scratch files=df  

 memory,500,m
 geomtyp=xyz
 nosym
 noorient
 geometry={
 C         -1.53233        0.02247        0.00000
 C         -0.00192        0.01421        0.00000
 O          0.37239        1.40356        0.00000
 H          1.34248        1.44036        0.00000
 H         -1.92991       -0.99819        0.00000
 H         -1.90797        0.54382       -0.88653
 H         -1.90797        0.54382        0.88653
 C          0.54303       -0.66466       -1.26580
 C          0.54303       -0.66466        1.26580
 H          0.17836       -0.14752       -2.15943
 H          0.17836       -0.14752        2.15943
 H          0.23752       -1.71600       -1.32280
 H          0.23752       -1.71600        1.32280
 H          1.64084       -0.63767       -1.28032
 H          1.64084       -0.63767        1.28032
 }
 basis={ default,avtz }
 {ks,SOGGA,direct;wf,42,1,0}
 {ibba,bonds=1}

 Variables initialized (895), CPU time= 0.00 sec
 Commands  initialized (725), CPU time= 0.02 sec, 591 directives.
 Default parameters read. Elapsed time= 0.10 sec

 Checking input...
 Passed
1


                                         ***  PROGRAM SYSTEM MOLPRO  ***
                                       Copyright, TTI GmbH Stuttgart, 2015
                                    Version 2099.9 linked May 26 2017 16:03:21


 **********************************************************************************************************************************
 LABEL *                                                                                 
  64 bit serial version                                                                  DATE: 12-Jun-17          TIME: 14:16:55  
 **********************************************************************************************************************************

 SHA1:             b4a5b34a9e711420743f49e6833241d17c61fb3c
 **********************************************************************************************************************************
 SETTING GEOMTYP        =    XYZ

 Variable memory set to  500000000 words,  buffer space 

 ZSYMEL=NOSYM

 SETTING BASIS          =    AVTZ


 Recomputing integrals since basis changed


 Using spherical harmonics

 Library entry C      S aug-cc-pVTZ          selected for orbital group  1
 Library entry C      P aug-cc-pVTZ          selected for orbital group  1
 Library entry C      D aug-cc-pVTZ          selected for orbital group  1
 Library entry C      F aug-cc-pVTZ          selected for orbital group  1
 Library entry O      S aug-cc-pVTZ          selected for orbital group  2
 Library entry O      P aug-cc-pVTZ          selected for orbital group  2
 Library entry O      D aug-cc-pVTZ          selected for orbital group  2
 Library entry O      F aug-cc-pVTZ          selected for orbital group  2
 Library entry H      S aug-cc-pVTZ          selected for orbital group  3
 Library entry H      P aug-cc-pVTZ          selected for orbital group  3
 Library entry H      D aug-cc-pVTZ          selected for orbital group  3


 PROGRAM * SEWARD (Integral evaluation for generally contracted gaussian basis sets)     Author: Roland Lindh, 1990

 Geometry written to block  1 of record 700


 Point group  C1  



 ATOMIC COORDINATES

 NR  ATOM    CHARGE       X              Y              Z

   1  C       6.00   -2.895684032    0.042462146    0.000000000
   2  C       6.00   -0.003628274    0.026853008    0.000000000
   3  O       8.00    0.703715112    2.652343999    0.000000000
   4  H       1.00    2.536919528    2.721885921    0.000000000
   5  H       1.00   -3.647001345   -1.886305720    0.000000000
   6  H       1.00   -3.605540754    1.027670861   -1.675298901
   7  H       1.00   -3.605540754    1.027670861    1.675298901
   8  C       6.00    1.026177977   -1.256025366   -2.392015328
   9  C       6.00    1.026177977   -1.256025366    2.392015328
  10  H       1.00    0.337051552   -0.278772398   -4.080731285
  11  H       1.00    0.337051552   -0.278772398    4.080731285
  12  H       1.00    0.448847749   -3.242770030   -2.499729718
  13  H       1.00    0.448847749   -3.242770030    2.499729718
  14  H       1.00    3.100738214   -1.205021658   -2.419454152
  15  H       1.00    3.100738214   -1.205021658    2.419454152

 Bond lengths in Bohr (Angstrom)

 1-2  2.892097881  1-5  2.069933136  1-6  2.069096224  1-7  2.069096224  2-3  2.719106031
     ( 1.530432290)     ( 1.095361444)     ( 1.094918569)     ( 1.094918569)     ( 1.438888946)

  2- 8  2.903104402   2- 9  2.903104402   3- 4  1.834522965   8-10  2.069222119   8-12  2.071730422
       ( 1.536256691)       ( 1.536256691)       ( 0.970787746)       ( 1.094985190)       ( 1.096312526)

  8-14  2.075368508   9-11  2.069222119   9-13  2.071730422   9-15  2.075368508
       ( 1.098237719)       ( 1.094985190)       ( 1.096312526)       ( 1.098237719)

 Bond angles

  1-2-3  104.76902697   1-2-8  110.92255387   1-2-9  110.92255387   2-1-5  110.97328220

  2- 1- 6  110.22090701   2- 1- 7  110.22090701   2- 3- 4  107.25071562   2- 8-10  110.21836376

  2- 8-12  111.57747468   2- 8-14  110.77023896   2- 9-11  110.21836376   2- 9-13  111.57747468

  2- 9-15  110.77023896   3- 2- 8  109.53648747   3- 2- 9  109.53648747   5- 1- 6  108.61190457

  5- 1- 7  108.61190457   6- 1- 7  108.12870271   8- 2- 9  110.96453384  10- 8-12  108.52192632

 10- 8-14  108.08997829  11- 9-13  108.52192632  11- 9-15  108.08997829  12- 8-14  107.54424578

 13- 9-15  107.54424578

 NUCLEAR CHARGE:                   42
 NUMBER OF PRIMITIVE AOS:         605
 NUMBER OF SYMMETRY AOS:          540
 NUMBER OF CONTRACTIONS:          460   ( 460A   )
 NUMBER OF CORE ORBITALS:           5   (   5A   )
 NUMBER OF VALENCE ORBITALS:       30   (  30A   )


 NUCLEAR REPULSION ENERGY  198.77359127


 Eigenvalues of metric

         1 0.351E-05 0.596E-05 0.770E-05 0.977E-05 0.161E-04 0.173E-04 0.207E-04 0.297E-04


 Contracted 2-electron integrals neglected if value below      1.0D-12
 AO integral compression algorithm  1   Integral accuracy      1.0D-12

     24892.932 MB (compressed) written to integral file ( 51.7%)


 NUMBER OF SORTED TWO-ELECTRON INTEGRALS: 5621233465.     BUFFER LENGTH:  32768
 NUMBER OF SEGMENTS: 176  SEGMENT LENGTH:   31999951      RECORD LENGTH: 131072

 Memory used in sort:      32.16 MW

 SORT1 READ  6020115514. AND WROTE  5366777799. INTEGRALS IN  61513 RECORDS. CPU TIME:    83.89 SEC, REAL TIME: 11046.10 SEC
 SORT2 READ  5366777799. AND WROTE  5621233465. INTEGRALS IN  94959 RECORDS. CPU TIME:   129.35 SEC, REAL TIME: 15396.84 SEC

 FILE SIZES:   FILE 1: 24930.9 MBYTE,  FILE 4: 64501.1 MBYTE,   TOTAL:  89432.0 MBYTE

 OPERATOR DM      FOR CENTER  0  COORDINATES:    0.000000    0.000000    0.000000


 **********************************************************************************************************************************
 DATASETS  * FILE   NREC   LENGTH (MB)   RECORD NAMES
              1      19    23757.53       500      610      700      900      950      970     1000      129      960     1100   
                                          VAR    BASINP    GEOM    SYMINP    ZMAT    AOBASIS   BASIS     P2S    ABASIS      S 
                                         1400     1410     1200     1210     1080     1600     1650     1300     1700   
                                           T        V       H0       H01     AOSYM     SMH    MOLCAS    ERIS     OPER   

 PROGRAMS   *        TOTAL       INT
 CPU TIMES  *       431.27    431.12
 REAL TIME  *     27309.44 SEC
 DISK USED  *        89.43 GB      
 **********************************************************************************************************************************

 Density functional group SOGGA=XC-SOGGA
 Functional: XC-SOGGA(via MFM 1.6)                                             Gradient terms: 1
 Use grid at  1800.2

 Functional: XC-SOGGA                  Factor:  1.0000

 Generated new metagrid on record  1800.2 with target accuracy 1.0D-06 and 55396 points in CPU time    1.6
 Computed new grid on record 1800.1 in CPU time    1.8
  370324 words reserved for DFT integration

 PROGRAM * RKS-SCF (Restricted closed shell Kohn-Sham)     Authors: W. Meyer, H.-J. Werner, P.J. Knowles, 1993

 NUMBER OF ELECTRONS:      21+   21-    SPACE SYMMETRY=1    SPIN SYMMETRY: Singlet 
 CONVERGENCE THRESHOLDS:    1.00E-05 (Density)    1.00E-06 (Energy)
 MAX. NUMBER OF ITERATIONS:       60
 INTERPOLATION TYPE:            DIIS
 INTERPOLATION STEPS:              2 (START)      1 (STEP)
 LEVEL SHIFTS:                  0.00 (CLOSED)  0.00 (OPEN) 



 Use fine grid record 1800.2 for energy threshold  1.0D-06
 Orbital guess generated from atomic densities. Full valence occupancy:   35

 Molecular orbital dump at record        2100.2

 Initial occupancy:  21

 ITERATION    DDIFF          GRAD             ENERGY        2-EL.EN.            DIPOLE MOMENTS         DIIS   ORB.
    1      0.000D+00      0.000D+00      -231.97789730    639.444446    0.69100   -0.74887    0.00000    0    start
    2      0.000D+00      0.563D-02      -231.38904687    587.422553   -0.71638    0.09021   -0.00000    1    diag
    3      0.142D-01      0.957D-02      -232.25748008    623.745171    0.41918   -0.73425    0.00000    2    diag
    4      0.908D-02      0.143D-02      -232.27082200    621.304103    0.32637   -0.39929    0.00000    3    diag
    5      0.141D-02      0.570D-03      -232.27294581    621.128147    0.31496   -0.54947    0.00000    4    diag
    6      0.567D-03      0.194D-03      -232.27321868    621.308081    0.32056   -0.51090    0.00000    5    diag
    7      0.157D-03      0.558D-04      -232.27323963    621.303687    0.32480   -0.50887    0.00000    6    diag
    8      0.481D-04      0.793D-05      -232.27324021    621.322457    0.32321   -0.51455    0.00000    7    diag
    9      0.964D-05      0.260D-05      -232.27324019    621.319041    0.32432   -0.51111    0.00000    0    orth

 Final occupancy:  21

 !RKS STATE 1.1 Energy               -232.273240191880
 Nuclear energy                       198.77359127
 One-electron energy                 -709.26211817
 Two-electron energy                  310.65952065
 Density functional                   -32.44423395     XC-SOGGA=-32.44423395
 Virial quotient                       -1.00618197
 !RKS STATE 1.1 Dipole moment           0.32432242    -0.51110532     0.00000000
 Dipole moment /Debye                   0.82429139    -1.29901505     0.00000000

 Orbital energies:

         1.1          2.1          3.1          4.1          5.1          6.1          7.1          8.1          9.1         10.1
    -18.673852    -9.887013    -9.815137    -9.815121    -9.810342    -0.927063    -0.711386    -0.619678    -0.619140    -0.509457

        11.1         12.1         13.1         14.1         15.1         16.1         17.1         18.1         19.1         20.1
     -0.436030    -0.400627    -0.397897    -0.360769    -0.347009    -0.330403    -0.315730    -0.306725    -0.299728    -0.274031

        21.1         22.1         23.1
     -0.222034    -0.022723     0.003372

 HOMO     21.1    -0.222034 =      -6.0418eV
 LUMO     22.1    -0.022723 =      -0.6183eV
 LUMO-HOMO         0.199310 =       5.4235eV


 **********************************************************************************************************************************
 DATASETS  * FILE   NREC   LENGTH (MB)   RECORD NAMES
              1      20    23759.30       500      610      700      900      950      970     1000      129      960     1100   
                                          VAR    BASINP    GEOM    SYMINP    ZMAT    AOBASIS   BASIS     P2S    ABASIS      S 
                                         1400     1410     1200     1210     1080     1600     1650     1300     1700     1800   
                                           T        V       H0       H01     AOSYM     SMH    MOLCAS    ERIS     OPER     GRID   

              2       5        7.31       700     1000      520     1800     2100   
                                         GEOM     BASIS   MCVARS    GRID      RKS  

 PROGRAMS   *        TOTAL        KS       INT
 CPU TIMES  *       898.90    467.63    431.12
 REAL TIME  *     35742.61 SEC
 DISK USED  *        89.43 GB      
 **********************************************************************************************************************************


 PROGRAM * Intrinsic Basis Bonding Analysis (IBBA)          Author: G. Knizia

 Molecular orbitals read from record     2100.2  Type=RKS/CANONICAL (state 1.1)
 Fock matrix read from record            2100.2  Type=RKS/TOTAL (state 1.1)
 Orbital energies read from record       2100.2  Type=RKS/CANONICAL (state 1.1)
 Density matrix read from record         2100.2  Type=RKS/CHARGE (state 1.1)

 Number of core orbitals:           5 (   5 )
 Number of closed-shell orbitals:  16 (  16 )

 Basis set MINAO-AUTO-PP generated.      Number of basis functions:   35 

 Polarized AO type:                A = (O Ot + (1-O)(1-Ot)) P12
 Orthogonalization method:         Symmetric (Loewdin)
 Localization functional:          L = sum[A,i] <i|n_A|i>^4 -> max

 Localization group 1:  21 orbitals, occupancy  2.000
 Iterative localization: IB/PM,    7 iter; Final gradient 0.78E-08

 Bond order analysis:       [THRPRINT= 0.020]

   CEN ATOM   CEN ATOM     WIBERG.BO      RENORM.BO
     1   C  -   2   C       0.996593       0.992127
     1   C  -   5   H       0.956358       0.985724
     1   C  -   6   H       0.951397       0.979031
     1   C  -   7   H       0.951397       0.979031

     2   C  -   1   C       0.996593       0.992127
     2   C  -   8   C       0.995260       0.972852
     2   C  -   9   C       0.995260       0.972852
     2   C  -   3   O       0.938156       0.940254

     3   O  -   2   C       0.938156       0.940254
     3   O  -   4   H       0.856190       0.972527
     3   O  -   9   C       0.031322       0.016045
     3   O  -   8   C       0.031322       0.016045

     4   H  -   3   O       0.856190       0.972527

     5   H  -   1   C       0.956358       0.985724

     6   H  -   1   C       0.951397       0.979031

     7   H  -   1   C       0.951397       0.979031

     8   C  -   2   C       0.995260       0.972852
     8   C  -  14   H       0.955803       0.979912
     8   C  -  10   H       0.952009       0.978851
     8   C  -  12   H       0.951318       0.978403
     8   C  -   3   O       0.031322       0.016045

     9   C  -   2   C       0.995260       0.972852
     9   C  -  15   H       0.955803       0.979912
     9   C  -  11   H       0.952009       0.978851
     9   C  -  13   H       0.951318       0.978403
     9   C  -   3   O       0.031322       0.016045

    10   H  -   8   C       0.952009       0.978851

    11   H  -   9   C       0.952009       0.978851

    12   H  -   8   C       0.951318       0.978403

    13   H  -   9   C       0.951318       0.978403

    14   H  -   8   C       0.955803       0.979912

    15   H  -   9   C       0.955803       0.979912


 Valency analysis:

   CEN ATOM   TOT.VALENCE
     1   C       3.923849
     2   C       3.937262
     3   O       1.934678
     4   H       0.878487
     5   H       0.977646
     6   H       0.975128
     7   H       0.975128
     8   C       3.926639
     9   C       3.926639
    10   H       0.975175
    11   H       0.975175
    12   H       0.976974
    13   H       0.976974
    14   H       0.979537
    15   H       0.979537

 Total charge composition:

   CEN ATOM         s          p       ELECTRONS ->P.CHARGE
     1   C       3.04658    3.41039      6.45697   -0.45697
     2   C       2.93778    2.82051      5.75829    0.24171
     3   O       3.65061    4.91094      8.56155   -0.56155
     4   H       0.65141                 0.65141    0.34859
     5   H       0.85049                 0.85049    0.14951
     6   H       0.84229                 0.84229    0.15771
     7   H       0.84229                 0.84229    0.15771
     8   C       3.05352    3.41719      6.47070   -0.47070
     9   C       3.05352    3.41719      6.47070   -0.47070
    10   H       0.84244                 0.84244    0.15756
    11   H       0.84244                 0.84244    0.15756
    12   H       0.84826                 0.84826    0.15174
    13   H       0.84826                 0.84826    0.15174
    14   H       0.85695                 0.85695    0.14305
    15   H       0.85695                 0.85695    0.14305

 Total charge composition, AO contributions:

   CEN ATOM SHL      SPHERICAL COMPONENTS
     1   C  1s       1.99164
     1   C  2s       1.05493
     1   C  2p       1.04517    1.17651    1.18872

     2   C  1s       1.99324
     2   C  2s       0.94454
     2   C  2p       1.00973    0.79790    1.01288

     3   O  1s       1.99728
     3   O  2s       1.65333
     3   O  2p       1.47700    1.48383    1.95011

     4   H  1s       0.65141

     5   H  1s       0.85049

     6   H  1s       0.84229

     7   H  1s       0.84229

     8   C  1s       1.99174
     8   C  2s       1.06177
     8   C  2p       1.15752    1.15690    1.10277

     9   C  1s       1.99174
     9   C  2s       1.06177
     9   C  2p       1.15752    1.15690    1.10277

    10   H  1s       0.84244

    11   H  1s       0.84244

    12   H  1s       0.84826

    13   H  1s       0.84826

    14   H  1s       0.85695

    15   H  1s       0.85695

 Summary of localized orbital composition:   [THRPRINT= 0.020]

   ORB  GRP  ORB.ENERGY      CENTERS/CHARGES
     1   1   -18.522031      O  3   2.000
     2   1    -9.798443      C  2   2.000
     3   1    -9.703766      C  9   2.000
     4   1    -9.703766      C  8   2.000
     5   1    -9.698218      C  1   2.000
     6   1    -0.693594      O  3   1.351   H  4   0.638
     7   1    -0.653671      O  3   1.276   C  2   0.704
     8   1    -0.517075      C  9   1.008   C  2   0.976
     9   1    -0.517075      C  8   1.008   C  2   0.976
    10   1    -0.516805      C  1   0.991   C  2   0.983   (other: 0.026)
    11   1    -0.506744      O  3   1.980   (other: 0.020)
    12   1    -0.448457      C  8   1.146   H 12   0.837
    13   1    -0.448457      C  9   1.146   H 13   0.837
    14   1    -0.447131      C  8   1.138   H 14   0.849
    15   1    -0.447131      C  9   1.138   H 15   0.849
    16   1    -0.444558      C  1   1.142   H  5   0.843
    17   1    -0.442609      C  9   1.155   H 11   0.833
    18   1    -0.442609      C  8   1.155   H 10   0.833
    19   1    -0.438399      C  1   1.154   H  6   0.833
    20   1    -0.438399      C  1   1.154   H  7   0.833
    21   1    -0.250235      O  3   1.950   (other: 0.050)

 Localized orbitals saved to record      2100.2  (orbital set 2)


 **********************************************************************************************************************************
 DATASETS  * FILE   NREC   LENGTH (MB)   RECORD NAMES
              1      20    23759.30       500      610      700      900      950      970     1000      129      960     1100   
                                          VAR    BASINP    GEOM    SYMINP    ZMAT    AOBASIS   BASIS     P2S    ABASIS      S 
                                         1400     1410     1200     1210     1080     1600     1650     1300     1700     1800   
                                           T        V       H0       H01     AOSYM     SMH    MOLCAS    ERIS     OPER     GRID   

              2       5        9.01       700     1000      520     1800     2100   
                                         GEOM     BASIS   MCVARS    GRID      RKS  

 PROGRAMS   *        TOTAL      IBBA        KS       INT
 CPU TIMES  *       899.18      0.28    467.63    431.12
 REAL TIME  *     35743.34 SEC
 DISK USED  *        89.43 GB      
 **********************************************************************************************************************************
 Molecular orbitals read from record     2100.2  Type=RKS/LOCAL(IBO)  
 Occupation numbers read from record     2100.2  Type=RKS/LOCAL(IBO)  
 Orbital energies read from record       2100.2  Type=RKS/LOCAL(IBO)  
 Redundancy group numbers read from rec  2100.2  Type=RKS/LOCAL(IBO)  

 IBBA/aug-cc-pVTZ energy=      0.000000000000

        KS-SCF  
   -232.27324019
 **********************************************************************************************************************************
 Molpro calculation terminated
