
 Primary working directories    : /tmp/sb13343
 Secondary working directories  : /tmp/sb13343
 Wavefunction directory         : /panfs/panasas01/chem/sb13343/wfu/
 Main file repository           : /tmp/sb13343/

 SHA1      : b4a5b34a9e711420743f49e6833241d17c61fb3c
 NAME      : 2099.9.b4a5b34
 ARCHNAME  : linux/x86_64_openmp
 FC        : /cm/shared/languages/GCC-6.1/bin/gfortran
 BLASLIB   : -lblas
 id        : simonbennie

 Nodes     nprocs
 node32-014    1

 Using customized tuning parameters: mindgm=1; mindgv=20; mindgc=4; mindgr=1; noblas=0; minvec=7
 default implementation of scratch files=df  

 memory,500,m
 geomtyp=xyz
 nosym
 noorient
 geometry={
 C          0.00000        0.00000        0.00000
 C          1.54025       -0.00009       -0.00004
 C         -0.51333        1.45219       -0.00005
 C         -0.51349       -0.72611       -1.25756
 C         -0.51342       -0.72599        1.25765
 H         -1.60999        1.48489       -0.00002
 H         -1.61015       -0.74237       -1.28580
 H         -1.61008       -0.74225        1.28596
 H         -0.16312        1.99638        0.88591
 H         -0.16316        1.99630       -0.88608
 H         -0.16333       -0.23096       -2.17186
 H         -0.16339       -1.76551       -1.28580
 H         -0.16332       -1.76539        1.28596
 H         -0.16320       -0.23077        2.17189
 H          1.93652       -1.02316       -0.00001
 H          1.93658        0.51138       -0.88607
 H          1.93663        0.51146        0.88592
 }
 basis={ default,sto-3g }
 {uks,B-P,direct;wf,42,1,0}
 {ibba,bonds=1}

 Variables initialized (895), CPU time= 0.00 sec
 Commands  initialized (725), CPU time= 0.02 sec, 591 directives.
 Default parameters read. Elapsed time= 0.33 sec

 Checking input...
 Passed
1


                                         ***  PROGRAM SYSTEM MOLPRO  ***
                                       Copyright, TTI GmbH Stuttgart, 2015
                                    Version 2099.9 linked May 26 2017 16:03:21


 **********************************************************************************************************************************
 LABEL *                                                                                 
  64 bit serial version                                                                  DATE: 08-Jun-17          TIME: 22:01:00  
 **********************************************************************************************************************************

 SHA1:             b4a5b34a9e711420743f49e6833241d17c61fb3c
 **********************************************************************************************************************************
 SETTING GEOMTYP        =    XYZ

 Variable memory set to  500000000 words,  buffer space 

 ZSYMEL=NOSYM

 SETTING BASIS          =    STO-3G


 Recomputing integrals since basis changed


 Using spherical harmonics

 Library entry C      S STO-3G               selected for orbital group  1
 Library entry C      P STO-3G               selected for orbital group  1
 Library entry H      S STO-3G               selected for orbital group  2


 PROGRAM * SEWARD (Integral evaluation for generally contracted gaussian basis sets)     Author: Roland Lindh, 1990

 Geometry written to block  1 of record 700


 Point group  C1  



 ATOMIC COORDINATES

 NR  ATOM    CHARGE       X              Y              Z

   1  C       6.00    0.000000000    0.000000000    0.000000000
   2  C       6.00    2.910650663   -0.000170075   -0.000075589
   3  C       6.00   -0.970053112    2.744241381   -0.000094486
   4  C       6.00   -0.970355468   -1.372149036   -2.376443985
   5  C       6.00   -0.970223187   -1.371922269    2.376614061
   6  H       1.00   -3.042440163    2.806035425   -0.000037795
   7  H       1.00   -3.042742519   -1.402875983   -2.429809851
   8  H       1.00   -3.042610239   -1.402649216    2.430112207
   9  H       1.00   -0.308252125    3.772611441    1.674127271
  10  H       1.00   -0.308327714    3.772460262   -1.674448524
  11  H       1.00   -0.308648968   -0.436451146   -4.104220581
  12  H       1.00   -0.308762351   -3.336330370   -2.429809851
  13  H       1.00   -0.308630071   -3.336103603    2.430112207
  14  H       1.00   -0.308403304   -0.436092098    4.104277273
  15  H       1.00    3.659492435   -1.933492182   -0.000018897
  16  H       1.00    3.659605818    0.966368146   -1.674429627
  17  H       1.00    3.659700305    0.966519324    1.674146168

 Bond lengths in Bohr (Angstrom)

  1- 2  2.910650669   1- 3  2.910646630   1- 4  2.910647475   1- 5  2.910635350   2-15  2.073282028
       ( 1.540250003)       ( 1.540247866)       ( 1.540248313)       ( 1.540241896)       ( 1.097133601)

  2-16  2.073304464   2-17  2.073302258   3- 6  2.073308129   3- 9  2.073293037   3-10  2.073300754
       ( 1.097145474)       ( 1.097144306)       ( 1.097147413)       ( 1.097139427)       ( 1.097143510)

  4- 7  2.073301752   4-11  2.073306055   4-12  2.073297296   5- 8  2.073305161   5-13  2.073300706
       ( 1.097144038)       ( 1.097146316)       ( 1.097141681)       ( 1.097145842)       ( 1.097143485)

  5-14  2.073307464
       ( 1.097147061)

 Bond angles

  1- 2-15  111.17643746   1- 2-16  111.17582452   1- 2-17  111.17607088   1- 3- 6  111.17575783

  1- 3- 9  111.17644989   1- 3-10  111.17611121   1- 4- 7  111.17614317   1- 4-11  111.17631877

  1- 4-12  111.17675056   1- 5- 8  111.17663037   1- 5-13  111.17645588   1- 5-14  111.17672823

  2-1-3  109.47117711   2-1-4  109.47117360   2-1-5  109.47107360   3-1-4  109.47144919

  3- 1- 5  109.47121161   4- 1- 5  109.47123870   6- 3- 9  107.71338639   6- 3-10  107.71391335

  7- 4-11  107.71323113   7- 4-12  107.71354587   8- 5-13  107.71328790   8- 5-14  107.71342022

  9- 3-10  107.71420977  11- 4-12  107.71378459  13- 5-14  107.71321488  15- 2-16  107.71365571

 15- 2-17  107.71411853  16- 2-17  107.71372051

 NUCLEAR CHARGE:                   42
 NUMBER OF PRIMITIVE AOS:         111
 NUMBER OF SYMMETRY AOS:          111
 NUMBER OF CONTRACTIONS:           37   (  37A   )
 NUMBER OF CORE ORBITALS:           5   (   5A   )
 NUMBER OF VALENCE ORBITALS:       32   (  32A   )


 NUCLEAR REPULSION ENERGY  197.66618863


 Eigenvalues of metric

         1 0.202E+00 0.229E+00 0.229E+00 0.229E+00 0.312E+00 0.362E+00 0.362E+00 0.362E+00


 Contracted 2-electron integrals neglected if value below      1.0D-11
 AO integral compression algorithm  1   Integral accuracy      1.0D-11

     2.097 MB (compressed) written to integral file ( 90.5%)


 NUMBER OF SORTED TWO-ELECTRON INTEGRALS:     247456.     BUFFER LENGTH:  32768
 NUMBER OF SEGMENTS:   1  SEGMENT LENGTH:     247456      RECORD LENGTH: 524288

 Memory used in sort:       0.80 MW

 SORT1 READ      274857. AND WROTE      242287. INTEGRALS IN      1 RECORDS. CPU TIME:     0.00 SEC, REAL TIME:     0.01 SEC
 SORT2 READ      242287. AND WROTE      247456. INTEGRALS IN      8 RECORDS. CPU TIME:     0.03 SEC, REAL TIME:     0.02 SEC

 FILE SIZES:   FILE 1:    32.4 MBYTE,  FILE 4:     4.2 MBYTE,   TOTAL:     36.6 MBYTE

 OPERATOR DM      FOR CENTER  0  COORDINATES:    0.000000    0.000000    0.000000


 **********************************************************************************************************************************
 DATASETS  * FILE   NREC   LENGTH (MB)   RECORD NAMES
              1      19       31.36       500      610      700      900      950      970     1000      129      960     1100   
                                          VAR    BASINP    GEOM    SYMINP    ZMAT    AOBASIS   BASIS     P2S    ABASIS      S 
                                         1400     1410     1200     1210     1080     1600     1650     1300     1700   
                                           T        V       H0       H01     AOSYM     SMH    MOLCAS    ERIS     OPER   

 PROGRAMS   *        TOTAL       INT
 CPU TIMES  *         0.72      0.58
 REAL TIME  *         1.27 SEC
 DISK USED  *        37.15 MB      
 **********************************************************************************************************************************

 Density functional group B-P=B88+P86
 Functional: B88(Automatically generated (new) B88)                            Gradient terms: 1
 Functional: P86(Automatically generated (new) P86)                            Gradient terms: 1
 Use grid at  1800.2

 Functional: B88                       Factor:  1.0000
 Functional: P86                       Factor:  1.0000

 Generated new metagrid on record  1800.2 with target accuracy 1.0D-06 and 57016 points in CPU time    1.8
 Computed new grid on record 1800.1 in CPU time    2.0
   34023 words reserved for DFT integration

 PROGRAM * UKS-SCF (Unrestricted Kohn-Sham)     Authors: W. Meyer, H.-J. Werner, P.J. Knowles, 1993

 NUMBER OF ELECTRONS:      21+   21-    SPACE SYMMETRY=1    SPIN SYMMETRY: Singlet 
 CONVERGENCE THRESHOLDS:    1.00E-05 (Density)    1.00E-06 (Energy)
 MAX. NUMBER OF ITERATIONS:       60
 INTERPOLATION TYPE:            DIIS
 INTERPOLATION STEPS:              2 (START)      1 (STEP)
 LEVEL SHIFTS:                 -0.20 (ALPHA)  -0.20 (BETA) 



 Use fine grid record 1800.2 for energy threshold  1.0D-06
 Orbital guess generated from atomic densities. Full valence occupancy:   21

 Molecular orbital dump at record        2200.2

 Initial alpha occupation  21
 Initial beta  occupation  21

 ITERATION    DDIFF          GRAD             ENERGY        2-EL.EN.            DIPOLE MOMENTS         DIIS
    1      0.000D+00      0.000D+00      -194.99544127    603.393164   -0.00001   -0.00011   -0.00000    0
    2      0.677D-01      0.219D-01      -195.39943287    580.579649    0.00001   -0.00009   -0.00000    1
    3      0.139D-01      0.584D-02      -195.42817142    585.037264    0.00001   -0.00009   -0.00000    2
    4      0.621D-03      0.250D-03      -195.42825768    585.042586    0.00001   -0.00009   -0.00000    3
    5      0.194D-03      0.561D-04      -195.42826324    585.038365    0.00001   -0.00009   -0.00000    4
    6      0.400D-04      0.116D-04      -195.42826343    585.038707    0.00001   -0.00009   -0.00000    4
    7      0.148D-04      0.538D-05      -195.42826346    585.038411    0.00001   -0.00009   -0.00000    5
    8      0.153D-05      0.632D-06      -195.42826346    585.038567    0.00001   -0.00009   -0.00000    5
    9      0.260D-06      0.646D-07      -195.42826346    585.038509    0.00001   -0.00009   -0.00000    5

 Final alpha occupancy:  21
 Final beta  occupancy:  21

 !UKS STATE 1.1 Energy               -195.428263461481
 Nuclear energy                       197.66618863
 One-electron energy                 -653.95910524
 Two-electron energy                  292.51925462
 Density functional                   -31.65460148     B88=-30.15448388 P86= -1.50011760
 Virial quotient                       -1.01730969
 !UKS STATE 1.1 Dipole moment           0.00000620    -0.00008948    -0.00000062
 Dipole moment /Debye                   0.00001575    -0.00022742    -0.00000157

 Orbital energies for positive spin:

         1.1          2.1          3.1          4.1          5.1          6.1          7.1          8.1          9.1         10.1
     -9.751555    -9.718100    -9.718095    -9.718093    -9.717894    -0.704449    -0.579600    -0.579598    -0.579596    -0.441077

        11.1         12.1         13.1         14.1         15.1         16.1         17.1         18.1         19.1         20.1
     -0.360716    -0.360714    -0.360706    -0.314777    -0.314777    -0.280832    -0.280832    -0.280830    -0.234384    -0.234383

        21.1         22.1         23.1
     -0.234380     0.314760     0.314762

 Orbital energies for negative spin:

         1.1          2.1          3.1          4.1          5.1          6.1          7.1          8.1          9.1         10.1
     -9.751555    -9.718100    -9.718095    -9.718093    -9.717894    -0.704449    -0.579600    -0.579598    -0.579596    -0.441077

        11.1         12.1         13.1         14.1         15.1         16.1         17.1         18.1         19.1         20.1
     -0.360716    -0.360714    -0.360705    -0.314777    -0.314777    -0.280832    -0.280832    -0.280830    -0.234384    -0.234383

        21.1         22.1         23.1
     -0.234380     0.314760     0.314762

 HOMO     21.1    -0.234380 =      -6.3778eV
 LUMO     22.1     0.314760 =       8.5651eV
 LUMO-HOMO         0.549141 =      14.9429eV

 EXPECTATION VALUE OF S**2:            -0.00000000

 Natural orbitals saved to record    2200.2 (Orbital set 3)

 Orbital spaces for UNO-CAS (Min. occupation: 0.020  Max. occupation: 1.980):

 Closed:       21
 Active:        0


 **********************************************************************************************************************************
 DATASETS  * FILE   NREC   LENGTH (MB)   RECORD NAMES
              1      20       33.19       500      610      700      900      950      970     1000      129      960     1100   
                                          VAR    BASINP    GEOM    SYMINP    ZMAT    AOBASIS   BASIS     P2S    ABASIS      S 
                                         1400     1410     1200     1210     1080     1600     1650     1300     1700     1800   
                                           T        V       H0       H01     AOSYM     SMH    MOLCAS    ERIS     OPER     GRID   

              2       5        3.10       700     1000      520     1800     2200   
                                         GEOM     BASIS   MCVARS    GRID      UKS  

 PROGRAMS   *        TOTAL       UKS       INT
 CPU TIMES  *         7.39      6.67      0.58
 REAL TIME  *         8.49 SEC
 DISK USED  *        37.15 MB      
 **********************************************************************************************************************************


 PROGRAM * Intrinsic Basis Bonding Analysis (IBBA)          Author: G. Knizia

 Molecular orbitals read from record     2200.2  Type=UKS/ALPHA (state 1.1)
 Fock matrix read from record            2200.2  Type=UKS/TOTAL (state 1.1)
 Orbital energies read from record       2200.2  Type=UKS/ALPHA (state 1.1)
 Density matrix read from record         2200.2  Type=UKS/CHARGE (state 1.1)

 Number of core orbitals:           5 (   5 )
 Number of closed-shell orbitals:  16 (  16 )

 Basis set MINAO-AUTO-PP generated.      Number of basis functions:   37 

 Polarized AO type:                A = (O Ot + (1-O)(1-Ot)) P12
 Orthogonalization method:         Symmetric (Loewdin)
 Localization functional:          L = sum[A,i] <i|n_A|i>^4 -> max

 Localization group 1:  21 orbitals, occupancy  2.000
 Iterative localization: IB/PM,    7 iter; Final gradient 0.17E-08

 Bond order analysis:       [THRPRINT= 0.020]

   CEN ATOM   CEN ATOM     WIBERG.BO      RENORM.BO
     1   C  -   5   C       0.996313       0.996044
     1   C  -   3   C       0.996312       0.996044
     1   C  -   4   C       0.996312       0.996043
     1   C  -   2   C       0.996310       0.996040

     2   C  -   1   C       0.996310       0.996040
     2   C  -  15   H       0.965566       0.985239
     2   C  -  17   H       0.965560       0.985239
     2   C  -  16   H       0.965560       0.985239

     3   C  -   1   C       0.996312       0.996044
     3   C  -  10   H       0.965565       0.985238
     3   C  -   9   H       0.965565       0.985238
     3   C  -   6   H       0.965562       0.985240

     4   C  -   1   C       0.996312       0.996043
     4   C  -  11   H       0.965566       0.985239
     4   C  -   7   H       0.965563       0.985239
     4   C  -  12   H       0.965557       0.985239

     5   C  -   1   C       0.996313       0.996044
     5   C  -  14   H       0.965566       0.985238
     5   C  -   8   H       0.965563       0.985238
     5   C  -  13   H       0.965557       0.985238

     6   H  -   3   C       0.965562       0.985240

     7   H  -   4   C       0.965563       0.985239

     8   H  -   5   C       0.965563       0.985238

     9   H  -   3   C       0.965565       0.985238

    10   H  -   3   C       0.965565       0.985238

    11   H  -   4   C       0.965566       0.985239

    12   H  -   4   C       0.965557       0.985239

    13   H  -   5   C       0.965557       0.985238

    14   H  -   5   C       0.965566       0.985238

    15   H  -   2   C       0.965566       0.985239

    16   H  -   2   C       0.965560       0.985239

    17   H  -   2   C       0.965560       0.985239


 Valency analysis:

   CEN ATOM   TOT.VALENCE
     1   C       3.995504
     2   C       3.937048
     3   C       3.937056
     4   C       3.937050
     5   C       3.937050
     6   H       0.983284
     7   H       0.983285
     8   H       0.983285
     9   H       0.983287
    10   H       0.983287
    11   H       0.983287
    12   H       0.983279
    13   H       0.983279
    14   H       0.983287
    15   H       0.983287
    16   H       0.983282
    17   H       0.983281

 Total charge composition:

   CEN ATOM         s          p       ELECTRONS ->P.CHARGE
     1   C       2.93798    3.05311      5.99109    0.00891
     2   C       3.00188    3.38823      6.39011   -0.39011
     3   C       3.00188    3.38821      6.39008   -0.39008
     4   C       3.00188    3.38822      6.39010   -0.39010
     5   C       3.00188    3.38822      6.39010   -0.39010
     6   H       0.87071                 0.87071    0.12929
     7   H       0.87071                 0.87071    0.12929
     8   H       0.87071                 0.87071    0.12929
     9   H       0.87072                 0.87072    0.12928
    10   H       0.87072                 0.87072    0.12928
    11   H       0.87072                 0.87072    0.12928
    12   H       0.87069                 0.87069    0.12931
    13   H       0.87069                 0.87069    0.12931
    14   H       0.87072                 0.87072    0.12928
    15   H       0.87072                 0.87072    0.12928
    16   H       0.87070                 0.87070    0.12930
    17   H       0.87070                 0.87070    0.12930

 Total charge composition, AO contributions:

   CEN ATOM SHL      SPHERICAL COMPONENTS
     1   C  1s       1.99290
     1   C  2s       0.94508
     1   C  2p       1.01770    1.01770    1.01770

     2   C  1s       1.99212
     2   C  2s       1.00975
     2   C  2p       1.05382    1.16720    1.16721

     3   C  1s       1.99212
     3   C  2s       1.00975
     3   C  2p       1.15461    1.06641    1.16719

     4   C  1s       1.99212
     4   C  2s       1.00976
     4   C  2p       1.15460    1.14201    1.09161

     5   C  1s       1.99212
     5   C  2s       1.00976
     5   C  2p       1.15460    1.14202    1.09160

     6   H  1s       0.87071

     7   H  1s       0.87071

     8   H  1s       0.87071

     9   H  1s       0.87072

    10   H  1s       0.87072

    11   H  1s       0.87072

    12   H  1s       0.87069

    13   H  1s       0.87069

    14   H  1s       0.87072

    15   H  1s       0.87072

    16   H  1s       0.87070

    17   H  1s       0.87070

 Summary of localized orbital composition:   [THRPRINT= 0.020]

   ORB  GRP  ORB.ENERGY      CENTERS/CHARGES
     1   1    -9.655655      C  1   2.000
     2   1    -9.609547      C  3   2.000
     3   1    -9.609540      C  4   2.000
     4   1    -9.609539      C  5   2.000
     5   1    -9.609535      C  2   2.000
     6   1    -0.447484      C  5   0.992   C  1   0.985   (other: 0.023)
     7   1    -0.447481      C  3   0.992   C  1   0.985   (other: 0.023)
     8   1    -0.447480      C  4   0.992   C  1   0.985   (other: 0.023)
     9   1    -0.447478      C  2   0.992   C  1   0.985   (other: 0.023)
    10   1    -0.406813      C  2   1.128   H 15   0.864
    11   1    -0.406813      C  3   1.128   H  9   0.864
    12   1    -0.406810      C  3   1.128   H 10   0.864
    13   1    -0.406808      C  3   1.128   H  6   0.864
    14   1    -0.406806      C  4   1.128   H  7   0.864
    15   1    -0.406806      C  4   1.128   H 11   0.864
    16   1    -0.406805      C  5   1.128   H 14   0.864
    17   1    -0.406805      C  5   1.128   H  8   0.864
    18   1    -0.406802      C  2   1.128   H 17   0.864
    19   1    -0.406801      C  2   1.128   H 16   0.864
    20   1    -0.406797      C  4   1.128   H 12   0.864
    21   1    -0.406795      C  5   1.128   H 13   0.864

 Localized orbitals saved to record      2200.2  (orbital set 4)


 **********************************************************************************************************************************
 DATASETS  * FILE   NREC   LENGTH (MB)   RECORD NAMES
              1      20       33.19       500      610      700      900      950      970     1000      129      960     1100   
                                          VAR    BASINP    GEOM    SYMINP    ZMAT    AOBASIS   BASIS     P2S    ABASIS      S 
                                         1400     1410     1200     1210     1080     1600     1650     1300     1700     1800   
                                           T        V       H0       H01     AOSYM     SMH    MOLCAS    ERIS     OPER     GRID   

              2       5        3.11       700     1000      520     1800     2200   
                                         GEOM     BASIS   MCVARS    GRID      UKS  

 PROGRAMS   *        TOTAL      IBBA       UKS       INT
 CPU TIMES  *         7.42      0.03      6.67      0.58
 REAL TIME  *         8.61 SEC
 DISK USED  *        37.15 MB      
 **********************************************************************************************************************************
 Molecular orbitals read from record     2200.2  Type=UKS/LOCAL(IBO)  
 Occupation numbers read from record     2200.2  Type=UKS/LOCAL(IBO)  
 Orbital energies read from record       2200.2  Type=UKS/LOCAL(IBO)  
 Redundancy group numbers read from rec  2200.2  Type=UKS/BETA (state 1.1)

 IBBA/STO-3G energy=      0.000000000000

        UKS-SCF 
   -195.42826346
 **********************************************************************************************************************************
 Molpro calculation terminated
