
 Primary working directories    : /tmp/sb13343
 Secondary working directories  : /tmp/sb13343
 Wavefunction directory         : /panfs/panasas01/chem/sb13343/wfu/
 Main file repository           : /tmp/sb13343/

 SHA1      : b4a5b34a9e711420743f49e6833241d17c61fb3c
 NAME      : 2099.9.b4a5b34
 ARCHNAME  : linux/x86_64_openmp
 FC        : /cm/shared/languages/GCC-6.1/bin/gfortran
 BLASLIB   : -lblas
 id        : simonbennie

 Nodes     nprocs
 node32-028    1

 Using customized tuning parameters: mindgm=1; mindgv=20; mindgc=4; mindgr=1; noblas=0; minvec=7
 default implementation of scratch files=df  

 memory,500,m
 geomtyp=xyz
 nosym
 noorient
 geometry={
 C         -1.53233        0.02247        0.00000
 C         -0.00192        0.01421        0.00000
 O          0.37239        1.40356        0.00000
 H          1.34248        1.44036        0.00000
 H         -1.92991       -0.99819        0.00000
 H         -1.90797        0.54382       -0.88653
 H         -1.90797        0.54382        0.88653
 C          0.54303       -0.66466       -1.26580
 C          0.54303       -0.66466        1.26580
 H          0.17836       -0.14752       -2.15943
 H          0.17836       -0.14752        2.15943
 H          0.23752       -1.71600       -1.32280
 H          0.23752       -1.71600        1.32280
 H          1.64084       -0.63767       -1.28032
 H          1.64084       -0.63767        1.28032
 }
 basis={ default,svp }
 {ks,D,direct;wf,42,1,0}
 {ibba,bonds=1}

 Variables initialized (895), CPU time= 0.00 sec
 Commands  initialized (725), CPU time= 0.01 sec, 591 directives.
 Default parameters read. Elapsed time= 2.80 sec

 Checking input...
 Passed
1


                                         ***  PROGRAM SYSTEM MOLPRO  ***
                                       Copyright, TTI GmbH Stuttgart, 2015
                                    Version 2099.9 linked May 26 2017 16:03:21


 **********************************************************************************************************************************
 LABEL *                                                                                 
  64 bit serial version                                                                  DATE: 09-Jun-17          TIME: 03:36:45  
 **********************************************************************************************************************************

 SHA1:             b4a5b34a9e711420743f49e6833241d17c61fb3c
 **********************************************************************************************************************************
 SETTING GEOMTYP        =    XYZ

 Variable memory set to  500000000 words,  buffer space 

 ZSYMEL=NOSYM

 SETTING BASIS          =    SVP


 Recomputing integrals since basis changed


 Using spherical harmonics

 Library entry C      S def2-SVP             selected for orbital group  1
 Library entry C      P def2-SVP             selected for orbital group  1
 Library entry C      D def2-SVP             selected for orbital group  1
 Library entry O      S def2-SVP             selected for orbital group  2
 Library entry O      P def2-SVP             selected for orbital group  2
 Library entry O      D def2-SVP             selected for orbital group  2
 Library entry H      S def2-SVP             selected for orbital group  3
 Library entry H      P def2-SVP             selected for orbital group  3


 PROGRAM * SEWARD (Integral evaluation for generally contracted gaussian basis sets)     Author: Roland Lindh, 1990

 Geometry written to block  1 of record 700


 Point group  C1  



 ATOMIC COORDINATES

 NR  ATOM    CHARGE       X              Y              Z

   1  C       6.00   -2.895684032    0.042462146    0.000000000
   2  C       6.00   -0.003628274    0.026853008    0.000000000
   3  O       8.00    0.703715112    2.652343999    0.000000000
   4  H       1.00    2.536919528    2.721885921    0.000000000
   5  H       1.00   -3.647001345   -1.886305720    0.000000000
   6  H       1.00   -3.605540754    1.027670861   -1.675298901
   7  H       1.00   -3.605540754    1.027670861    1.675298901
   8  C       6.00    1.026177977   -1.256025366   -2.392015328
   9  C       6.00    1.026177977   -1.256025366    2.392015328
  10  H       1.00    0.337051552   -0.278772398   -4.080731285
  11  H       1.00    0.337051552   -0.278772398    4.080731285
  12  H       1.00    0.448847749   -3.242770030   -2.499729718
  13  H       1.00    0.448847749   -3.242770030    2.499729718
  14  H       1.00    3.100738214   -1.205021658   -2.419454152
  15  H       1.00    3.100738214   -1.205021658    2.419454152

 Bond lengths in Bohr (Angstrom)

 1-2  2.892097881  1-5  2.069933136  1-6  2.069096224  1-7  2.069096224  2-3  2.719106031
     ( 1.530432290)     ( 1.095361444)     ( 1.094918569)     ( 1.094918569)     ( 1.438888946)

  2- 8  2.903104402   2- 9  2.903104402   3- 4  1.834522965   8-10  2.069222119   8-12  2.071730422
       ( 1.536256691)       ( 1.536256691)       ( 0.970787746)       ( 1.094985190)       ( 1.096312526)

  8-14  2.075368508   9-11  2.069222119   9-13  2.071730422   9-15  2.075368508
       ( 1.098237719)       ( 1.094985190)       ( 1.096312526)       ( 1.098237719)

 Bond angles

  1-2-3  104.76902697   1-2-8  110.92255387   1-2-9  110.92255387   2-1-5  110.97328220

  2- 1- 6  110.22090701   2- 1- 7  110.22090701   2- 3- 4  107.25071562   2- 8-10  110.21836376

  2- 8-12  111.57747468   2- 8-14  110.77023896   2- 9-11  110.21836376   2- 9-13  111.57747468

  2- 9-15  110.77023896   3- 2- 8  109.53648747   3- 2- 9  109.53648747   5- 1- 6  108.61190457

  5- 1- 7  108.61190457   6- 1- 7  108.12870271   8- 2- 9  110.96453384  10- 8-12  108.52192632

 10- 8-14  108.08997829  11- 9-13  108.52192632  11- 9-15  108.08997829  12- 8-14  107.54424578

 13- 9-15  107.54424578

 NUCLEAR CHARGE:                   42
 NUMBER OF PRIMITIVE AOS:         195
 NUMBER OF SYMMETRY AOS:          190
 NUMBER OF CONTRACTIONS:          120   ( 120A   )
 NUMBER OF CORE ORBITALS:           5   (   5A   )
 NUMBER OF VALENCE ORBITALS:       30   (  30A   )


 NUCLEAR REPULSION ENERGY  198.77359127


 Eigenvalues of metric

         1 0.176E-02 0.546E-02 0.548E-02 0.123E-01 0.248E-01 0.256E-01 0.256E-01 0.275E-01


 Contracted 2-electron integrals neglected if value below      1.0D-11
 AO integral compression algorithm  1   Integral accuracy      1.0D-11

     101.974 MB (compressed) written to integral file ( 44.9%)


 NUMBER OF SORTED TWO-ELECTRON INTEGRALS:   26357430.     BUFFER LENGTH:  32768
 NUMBER OF SEGMENTS:   2  SEGMENT LENGTH:   15997996      RECORD LENGTH: 524288

 Memory used in sort:      16.56 MW

 SORT1 READ    28411733. AND WROTE    24096425. INTEGRALS IN     70 RECORDS. CPU TIME:     0.35 SEC, REAL TIME:     0.71 SEC
 SORT2 READ    24096425. AND WROTE    26357430. INTEGRALS IN    389 RECORDS. CPU TIME:     0.56 SEC, REAL TIME:     0.75 SEC

 FILE SIZES:   FILE 1:   132.7 MBYTE,  FILE 4:   293.6 MBYTE,   TOTAL:    426.4 MBYTE

 OPERATOR DM      FOR CENTER  0  COORDINATES:    0.000000    0.000000    0.000000


 **********************************************************************************************************************************
 DATASETS  * FILE   NREC   LENGTH (MB)   RECORD NAMES
              1      19      120.44       500      610      700      900      950      970     1000      129      960     1100   
                                          VAR    BASINP    GEOM    SYMINP    ZMAT    AOBASIS   BASIS     P2S    ABASIS      S 
                                         1400     1410     1200     1210     1080     1600     1650     1300     1700   
                                           T        V       H0       H01     AOSYM     SMH    MOLCAS    ERIS     OPER   

 PROGRAMS   *        TOTAL       INT
 CPU TIMES  *         3.83      3.69
 REAL TIME  *         7.89 SEC
 DISK USED  *       426.89 MB      
 **********************************************************************************************************************************

 Density functional group D=DIRAC
 Functional: DIRAC(Automatically generated (new) DIRAC)                        Gradient terms: 0
 Use grid at  1800.2

 Functional: DIRAC                     Factor:  1.0000

 Generated new metagrid on record  1800.2 with target accuracy 1.0D-06 and 53396 points in CPU time    1.5
 Computed new grid on record 1800.1 in CPU time    1.7
   53819 words reserved for DFT integration

 PROGRAM * RKS-SCF (Restricted closed shell Kohn-Sham)     Authors: W. Meyer, H.-J. Werner, P.J. Knowles, 1993

 NUMBER OF ELECTRONS:      21+   21-    SPACE SYMMETRY=1    SPIN SYMMETRY: Singlet 
 CONVERGENCE THRESHOLDS:    1.00E-05 (Density)    1.00E-06 (Energy)
 MAX. NUMBER OF ITERATIONS:       60
 INTERPOLATION TYPE:            DIIS
 INTERPOLATION STEPS:              2 (START)      1 (STEP)
 LEVEL SHIFTS:                  0.00 (CLOSED)  0.00 (OPEN) 



 Use fine grid record 1800.2 for energy threshold  1.0D-06
 Orbital guess generated from atomic densities. Full valence occupancy:   21

 Molecular orbital dump at record        2100.2

 Initial occupancy:  21

 ITERATION    DDIFF          GRAD             ENERGY        2-EL.EN.            DIPOLE MOMENTS         DIIS   ORB.
    1      0.000D+00      0.000D+00      -228.50758291    637.877748    0.72185   -0.76483    0.00000    0    start
    2      0.000D+00      0.115D-01      -228.00766062    590.166850   -0.38730    0.41377    0.00000    1    diag
    3      0.367D-01      0.186D-01      -228.80164032    621.551692    0.43549   -0.51982    0.00000    2    diag
    4      0.279D-01      0.154D-02      -228.80464264    619.827295    0.36291   -0.32050    0.00000    3    diag
    5      0.235D-02      0.890D-03      -228.80606724    620.016020    0.37095   -0.41771    0.00000    4    diag
    6      0.878D-03      0.179D-03      -228.80610929    620.069368    0.37326   -0.39263    0.00000    5    diag
    7      0.221D-03      0.902D-04      -228.80612257    620.059049    0.37447   -0.39657    0.00000    6    diag
    8      0.668D-04      0.836D-05      -228.80612273    620.068991    0.37395   -0.39863    0.00000    7    diag
    9      0.119D-04      0.247D-05      -228.80612274    620.069304    0.37414   -0.39804    0.00000    8    diag
   10      0.301D-05      0.625D-06      -228.80612274    620.069169    0.37423   -0.39802    0.00000    0    orth

 Final occupancy:  21

 !RKS STATE 1.1 Energy               -228.806122739280
 Nuclear energy                       198.77359127
 One-electron energy                 -708.46647971
 Two-electron energy                  310.03458462
 Density functional                   -29.14781891     DIRAC=-29.14781891
 Virial quotient                       -0.99691109
 !RKS STATE 1.1 Dipole moment           0.37422898    -0.39802384     0.00000000
 Dipole moment /Debye                   0.95113288    -1.01160943     0.00000000

 Orbital energies:

         1.1          2.1          3.1          4.1          5.1          6.1          7.1          8.1          9.1         10.1
    -18.519912    -9.763343    -9.702122    -9.702074    -9.696601    -0.853389    -0.651263    -0.563130    -0.562479    -0.455361

        11.1         12.1         13.1         14.1         15.1         16.1         17.1         18.1         19.1         20.1
     -0.387164    -0.353444    -0.352187    -0.312612    -0.301022    -0.283804    -0.269524    -0.258375    -0.253702    -0.222440

        21.1         22.1         23.1
     -0.166584     0.046588     0.096787

 HOMO     21.1    -0.166584 =      -4.5330eV
 LUMO     22.1     0.046588 =       1.2677eV
 LUMO-HOMO         0.213172 =       5.8007eV


 **********************************************************************************************************************************
 DATASETS  * FILE   NREC   LENGTH (MB)   RECORD NAMES
              1      20      122.15       500      610      700      900      950      970     1000      129      960     1100   
                                          VAR    BASINP    GEOM    SYMINP    ZMAT    AOBASIS   BASIS     P2S    ABASIS      S 
                                         1400     1410     1200     1210     1080     1600     1650     1300     1700     1800   
                                           T        V       H0       H01     AOSYM     SMH    MOLCAS    ERIS     OPER     GRID   

              2       5        3.30       700     1000      520     1800     2100   
                                         GEOM     BASIS   MCVARS    GRID      RKS  

 PROGRAMS   *        TOTAL        KS       INT
 CPU TIMES  *        12.20      8.37      3.69
 REAL TIME  *        16.88 SEC
 DISK USED  *       426.89 MB      
 **********************************************************************************************************************************


 PROGRAM * Intrinsic Basis Bonding Analysis (IBBA)          Author: G. Knizia

 Molecular orbitals read from record     2100.2  Type=RKS/CANONICAL (state 1.1)
 Fock matrix read from record            2100.2  Type=RKS/TOTAL (state 1.1)
 Orbital energies read from record       2100.2  Type=RKS/CANONICAL (state 1.1)
 Density matrix read from record         2100.2  Type=RKS/CHARGE (state 1.1)

 Number of core orbitals:           5 (   5 )
 Number of closed-shell orbitals:  16 (  16 )

 Basis set MINAO-AUTO-PP generated.      Number of basis functions:   35 

 Polarized AO type:                A = (O Ot + (1-O)(1-Ot)) P12
 Orthogonalization method:         Symmetric (Loewdin)
 Localization functional:          L = sum[A,i] <i|n_A|i>^4 -> max

 Localization group 1:  21 orbitals, occupancy  2.000
 Iterative localization: IB/PM,    7 iter; Final gradient 0.39E-08

 Bond order analysis:       [THRPRINT= 0.020]

   CEN ATOM   CEN ATOM     WIBERG.BO      RENORM.BO
     1   C  -   2   C       0.992946       0.990325
     1   C  -   5   H       0.958833       0.984888
     1   C  -   6   H       0.953938       0.978594
     1   C  -   7   H       0.953938       0.978594

     2   C  -   1   C       0.992946       0.990325
     2   C  -   9   C       0.992257       0.970832
     2   C  -   8   C       0.992257       0.970832
     2   C  -   3   O       0.948723       0.945091

     3   O  -   2   C       0.948723       0.945091
     3   O  -   4   H       0.873054       0.971334
     3   O  -   8   C       0.032689       0.016861
     3   O  -   9   C       0.032689       0.016861

     4   H  -   3   O       0.873054       0.971334

     5   H  -   1   C       0.958833       0.984888

     6   H  -   1   C       0.953938       0.978594

     7   H  -   1   C       0.953938       0.978594

     8   C  -   2   C       0.992257       0.970832
     8   C  -  14   H       0.957923       0.979457
     8   C  -  10   H       0.954593       0.978339
     8   C  -  12   H       0.953828       0.978057
     8   C  -   3   O       0.032689       0.016861

     9   C  -   2   C       0.992257       0.970832
     9   C  -  15   H       0.957923       0.979457
     9   C  -  11   H       0.954593       0.978339
     9   C  -  13   H       0.953828       0.978057
     9   C  -   3   O       0.032689       0.016861

    10   H  -   8   C       0.954593       0.978339

    11   H  -   9   C       0.954593       0.978339

    12   H  -   8   C       0.953828       0.978057

    13   H  -   9   C       0.953828       0.978057

    14   H  -   8   C       0.957923       0.979457

    15   H  -   9   C       0.957923       0.979457


 Valency analysis:

   CEN ATOM   TOT.VALENCE
     1   C       3.930640
     2   C       3.940870
     3   O       1.967290
     4   H       0.895959
     5   H       0.981674
     6   H       0.979330
     7   H       0.979330
     8   C       3.933197
     9   C       3.933197
    10   H       0.979403
    11   H       0.979403
    12   H       0.980826
    13   H       0.980826
    14   H       0.983442
    15   H       0.983442

 Total charge composition:

   CEN ATOM         s          p       ELECTRONS ->P.CHARGE
     1   C       3.01290    3.40763      6.42054   -0.42054
     2   C       2.90793    2.84939      5.75732    0.24268
     3   O       3.62326    4.89539      8.51865   -0.51865
     4   H       0.67745                 0.67745    0.32255
     5   H       0.86463                 0.86463    0.13537
     6   H       0.85623                 0.85623    0.14377
     7   H       0.85623                 0.85623    0.14377
     8   C       3.02022    3.41493      6.43514   -0.43514
     9   C       3.02022    3.41493      6.43514   -0.43514
    10   H       0.85648                 0.85648    0.14352
    11   H       0.85648                 0.85648    0.14352
    12   H       0.86153                 0.86153    0.13847
    13   H       0.86153                 0.86153    0.13847
    14   H       0.87132                 0.87132    0.12868
    15   H       0.87132                 0.87132    0.12868

 Total charge composition, AO contributions:

   CEN ATOM SHL      SPHERICAL COMPONENTS
     1   C  1s       1.99220
     1   C  2s       1.02071
     1   C  2p       1.05409    1.17064    1.18291

     2   C  1s       1.99375
     2   C  2s       0.91419
     2   C  2p       1.01711    0.81438    1.01790

     3   O  1s       1.99741
     3   O  2s       1.62586
     3   O  2p       1.46472    1.48295    1.94772

     4   H  1s       0.67745

     5   H  1s       0.86463

     6   H  1s       0.85623

     7   H  1s       0.85623

     8   C  1s       1.99229
     8   C  2s       1.02793
     8   C  2p       1.15266    1.15473    1.10754

     9   C  1s       1.99229
     9   C  2s       1.02793
     9   C  2p       1.15266    1.15473    1.10754

    10   H  1s       0.85648

    11   H  1s       0.85648

    12   H  1s       0.86153

    13   H  1s       0.86153

    14   H  1s       0.87132

    15   H  1s       0.87132

 Summary of localized orbital composition:   [THRPRINT= 0.020]

   ORB  GRP  ORB.ENERGY      CENTERS/CHARGES
     1   1   -18.381943      O  3   2.000
     2   1    -9.677370      C  2   2.000
     3   1    -9.594903      C  8   2.000
     4   1    -9.594903      C  9   2.000
     5   1    -9.588676      C  1   2.000
     6   1    -0.633889      O  3   1.326   H  4   0.664
     7   1    -0.606035      O  3   1.262   C  2   0.719
     8   1    -0.467784      C  9   1.011   C  2   0.971
     9   1    -0.467784      C  8   1.011   C  2   0.971
    10   1    -0.467167      C  1   0.993   C  2   0.979   (other: 0.028)
    11   1    -0.412503      O  3   1.978   (other: 0.022)
    12   1    -0.398078      C  9   1.134   H 13   0.850
    13   1    -0.398078      C  8   1.134   H 12   0.850
    14   1    -0.398025      C  8   1.123   H 14   0.862
    15   1    -0.398025      C  9   1.123   H 15   0.862
    16   1    -0.393705      C  1   1.128   H  5   0.856
    17   1    -0.392324      C  9   1.141   H 11   0.846
    18   1    -0.392324      C  8   1.141   H 10   0.846
    19   1    -0.387323      C  1   1.141   H  6   0.846
    20   1    -0.387323      C  1   1.141   H  7   0.846
    21   1    -0.192371      O  3   1.948   C  2   0.020   (other: 0.032)

 Localized orbitals saved to record      2100.2  (orbital set 2)


 **********************************************************************************************************************************
 DATASETS  * FILE   NREC   LENGTH (MB)   RECORD NAMES
              1      20      122.15       500      610      700      900      950      970     1000      129      960     1100   
                                          VAR    BASINP    GEOM    SYMINP    ZMAT    AOBASIS   BASIS     P2S    ABASIS      S 
                                         1400     1410     1200     1210     1080     1600     1650     1300     1700     1800   
                                           T        V       H0       H01     AOSYM     SMH    MOLCAS    ERIS     OPER     GRID   

              2       5        3.42       700     1000      520     1800     2100   
                                         GEOM     BASIS   MCVARS    GRID      RKS  

 PROGRAMS   *        TOTAL      IBBA        KS       INT
 CPU TIMES  *        12.24      0.04      8.37      3.69
 REAL TIME  *        17.01 SEC
 DISK USED  *       426.89 MB      
 **********************************************************************************************************************************
 Molecular orbitals read from record     2100.2  Type=RKS/LOCAL(IBO)  
 Occupation numbers read from record     2100.2  Type=RKS/LOCAL(IBO)  
 Orbital energies read from record       2100.2  Type=RKS/LOCAL(IBO)  
 Redundancy group numbers read from rec  2100.2  Type=RKS/LOCAL(IBO)  

 IBBA/SVP energy=      0.000000000000

        KS-SCF  
   -228.80612274
 **********************************************************************************************************************************
 Molpro calculation terminated
