
 Primary working directories    : /tmp/sb13343
 Secondary working directories  : /tmp/sb13343
 Wavefunction directory         : /panfs/panasas01/chem/sb13343/wfu/
 Main file repository           : /tmp/sb13343/

 SHA1      : b4a5b34a9e711420743f49e6833241d17c61fb3c
 NAME      : 2099.9.b4a5b34
 ARCHNAME  : linux/x86_64_openmp
 FC        : /cm/shared/languages/GCC-6.1/bin/gfortran
 BLASLIB   : -lblas
 id        : simonbennie

 Nodes     nprocs
 node32-036    1

 Using customized tuning parameters: mindgm=1; mindgv=20; mindgc=4; mindgr=1; noblas=0; minvec=7
 default implementation of scratch files=df  

 memory,500,m
 geomtyp=xyz
 nosym
 noorient
 geometry={
 C          0.00000        0.00000        0.00000
 H          0.00000        0.00000        1.10056
 C          1.46209        0.00000       -0.46855
 C         -0.73105       -1.26621       -0.46855
 C         -0.73105        1.26621       -0.46855
 H          1.52118        0.00000       -1.56505
 H         -0.76059       -1.31738       -1.56505
 H         -0.76059        1.31738       -1.56505
 H          1.99755        0.88622       -0.10723
 H          1.99755       -0.88622       -0.10723
 H         -0.23129       -2.17304       -0.10723
 H         -1.76626       -1.28682       -0.10723
 H         -1.76626        1.28682       -0.10723
 H         -0.23129        2.17304       -0.10723
 }
 basis={ default,svp }
 {uks,B97,direct;wf,34,1,0}
 {ibba,bonds=1}

 Variables initialized (895), CPU time= 0.00 sec
 Commands  initialized (725), CPU time= 0.02 sec, 591 directives.
 Default parameters read. Elapsed time= 0.08 sec

 Checking input...
 Passed
1


                                         ***  PROGRAM SYSTEM MOLPRO  ***
                                       Copyright, TTI GmbH Stuttgart, 2015
                                    Version 2099.9 linked May 26 2017 16:03:21


 **********************************************************************************************************************************
 LABEL *                                                                                 
  64 bit serial version                                                                  DATE: 09-Jun-17          TIME: 00:06:53  
 **********************************************************************************************************************************

 SHA1:             b4a5b34a9e711420743f49e6833241d17c61fb3c
 **********************************************************************************************************************************
 SETTING GEOMTYP        =    XYZ

 Variable memory set to  500000000 words,  buffer space 

 ZSYMEL=NOSYM

 SETTING BASIS          =    SVP


 Recomputing integrals since basis changed


 Using spherical harmonics

 Library entry C      S def2-SVP             selected for orbital group  1
 Library entry C      P def2-SVP             selected for orbital group  1
 Library entry C      D def2-SVP             selected for orbital group  1
 Library entry H      S def2-SVP             selected for orbital group  2
 Library entry H      P def2-SVP             selected for orbital group  2


 PROGRAM * SEWARD (Integral evaluation for generally contracted gaussian basis sets)     Author: Roland Lindh, 1990

 Geometry written to block  1 of record 700


 Point group  C1  



 ATOMIC COORDINATES

 NR  ATOM    CHARGE       X              Y              Z

   1  C       6.00    0.000000000    0.000000000    0.000000000
   2  H       1.00    0.000000000    0.000000000    2.079756984
   3  C       6.00    2.762949669    0.000000000   -0.885431176
   4  C       6.00   -1.381484283   -2.392790116   -0.885431176
   5  C       6.00   -1.381484283    2.392790116   -0.885431176
   6  H       1.00    2.874613586    0.000000000   -2.957515871
   7  H       1.00   -1.437306793   -2.489487402   -2.957515871
   8  H       1.00   -1.437306793    2.489487402   -2.957515871
   9  H       1.00    3.774822420    1.674713086   -0.202635332
  10  H       1.00    3.774822420   -1.674713086   -0.202635332
  11  H       1.00   -0.437074755   -4.106450458   -0.202635332
  12  H       1.00   -3.337747665   -2.431737372   -0.202635332
  13  H       1.00   -3.337747665    2.431737372   -0.202635332
  14  H       1.00   -0.437074755    4.106450458   -0.202635332

 Bond lengths in Bohr (Angstrom)

 1-2  2.079756984  1-3  2.901358172  1-4  2.901367218  1-5  2.901367218  3-6  2.075091279
     ( 1.100560000)     ( 1.535332625)     ( 1.535337412)     ( 1.535337412)     ( 1.098091015)

  3- 9  2.072380406   3-10  2.072380406   4- 7  2.075090722   4-11  2.072378172   4-12  2.072364222
       ( 1.096656483)       ( 1.096656483)       ( 1.098090721)       ( 1.096655301)       ( 1.096647919)

  5- 8  2.075090722   5-13  2.072364222   5-14  2.072378172
       ( 1.098090721)       ( 1.096647919)       ( 1.096655301)

 Bond angles

  1- 3- 6  110.85354902   1- 3- 9  111.37220114   1- 3-10  111.37220114   1- 4- 7  110.85320625

  1- 4-11  111.37204414   1- 4-12  111.37216555   1- 5- 8  110.85320625   1- 5-13  111.37216555

  1- 5-14  111.37204414   2- 1- 3  107.76888332   2- 1- 4  107.76882608   2- 1- 5  107.76882608

  3-1-4  111.11870751   3-1-5  111.11870751   4-1-5  111.11845005   6-3-9  107.62119374

  6- 3-10  107.62119374   7- 4-11  107.62125572   7- 4-12  107.62162102   8- 5-13  107.62162102

  8- 5-14  107.62125572   9- 3-10  107.82352924  11- 4-12  107.82360822  13- 5-14  107.82360822

 NUCLEAR CHARGE:                   34
 NUMBER OF PRIMITIVE AOS:         170
 NUMBER OF SYMMETRY AOS:          166
 NUMBER OF CONTRACTIONS:          106   ( 106A   )
 NUMBER OF CORE ORBITALS:           4   (   4A   )
 NUMBER OF VALENCE ORBITALS:       26   (  26A   )


 NUCLEAR REPULSION ENERGY  134.07051350


 Eigenvalues of metric

         1 0.225E-02 0.614E-02 0.614E-02 0.233E-01 0.256E-01 0.268E-01 0.268E-01 0.277E-01


 Contracted 2-electron integrals neglected if value below      1.0D-11
 AO integral compression algorithm  1   Integral accuracy      1.0D-11

     64.750 MB (compressed) written to integral file ( 46.7%)


 NUMBER OF SORTED TWO-ELECTRON INTEGRALS:   16082956.     BUFFER LENGTH:  32768
 NUMBER OF SEGMENTS:   2  SEGMENT LENGTH:   15997996      RECORD LENGTH: 524288

 Memory used in sort:      16.56 MW

 SORT1 READ    17384690. AND WROTE    14795173. INTEGRALS IN     44 RECORDS. CPU TIME:     0.22 SEC, REAL TIME:     0.40 SEC
 SORT2 READ    14795173. AND WROTE    16082956. INTEGRALS IN    247 RECORDS. CPU TIME:     0.41 SEC, REAL TIME:     0.49 SEC

 FILE SIZES:   FILE 1:    95.4 MBYTE,  FILE 4:   184.6 MBYTE,   TOTAL:    279.9 MBYTE

 OPERATOR DM      FOR CENTER  0  COORDINATES:    0.000000    0.000000    0.000000


 **********************************************************************************************************************************
 DATASETS  * FILE   NREC   LENGTH (MB)   RECORD NAMES
              1      19       87.57       500      610      700      900      950      970     1000      129      960     1100   
                                          VAR    BASINP    GEOM    SYMINP    ZMAT    AOBASIS   BASIS     P2S    ABASIS      S 
                                         1400     1410     1200     1210     1080     1600     1650     1300     1700   
                                           T        V       H0       H01     AOSYM     SMH    MOLCAS    ERIS     OPER   

 PROGRAMS   *        TOTAL       INT
 CPU TIMES  *         2.69      2.55
 REAL TIME  *         3.37 SEC
 DISK USED  *       280.45 MB      
 **********************************************************************************************************************************

 Density functional group B97=B97DF
 Functional: B97DF(Automatically generated (new) B97DF)                        Gradient terms: 1
 Use grid at  1800.2


 Exact exchange will be calculated, factor:  0.1943

 Functional: B97DF                     Factor:  1.0000

 Generated new metagrid on record  1800.2 with target accuracy 1.0D-06 and 45620 points in CPU time    1.1
 Computed new grid on record 1800.1 in CPU time    1.2
   88342 words reserved for DFT integration

 PROGRAM * UKS-SCF (Unrestricted Kohn-Sham)     Authors: W. Meyer, H.-J. Werner, P.J. Knowles, 1993

 NUMBER OF ELECTRONS:      17+   17-    SPACE SYMMETRY=1    SPIN SYMMETRY: Singlet 
 CONVERGENCE THRESHOLDS:    1.00E-05 (Density)    1.00E-06 (Energy)
 MAX. NUMBER OF ITERATIONS:       60
 INTERPOLATION TYPE:            DIIS
 INTERPOLATION STEPS:              2 (START)      1 (STEP)
 LEVEL SHIFTS:                 -0.20 (ALPHA)  -0.20 (BETA) 



 Use fine grid record 1800.2 for energy threshold  1.0D-06
 Orbital guess generated from atomic densities. Full valence occupancy:   17

 Molecular orbital dump at record        2200.2

 Initial alpha occupation  17
 Initial beta  occupation  17

 ITERATION    DDIFF          GRAD             ENERGY        2-EL.EN.            DIPOLE MOMENTS         DIIS
    1      0.000D+00      0.000D+00      -158.11059286    421.240540    0.00000   -0.00000   -0.01708    0
    2      0.108D-01      0.512D-02      -158.26419117    406.265349    0.00000   -0.00000    0.00044    1
    3      0.312D-02      0.197D-02      -158.28411167    409.624699   -0.00006   -0.00000    0.03494    2
    4      0.104D-02      0.243D-03      -158.28484884    409.459946   -0.00006   -0.00000    0.03357    3
    5      0.616D-03      0.981D-04      -158.28500739    409.414538   -0.00006   -0.00000    0.03534    4
    6      0.266D-03      0.320D-04      -158.28502519    409.388822   -0.00007   -0.00000    0.03727    5
    7      0.507D-04      0.788D-05      -158.28502603    409.389055   -0.00007   -0.00000    0.03564    6
    8      0.125D-04      0.191D-05      -158.28502609    409.388614   -0.00007   -0.00000    0.03622    6
    9      0.393D-05      0.495D-06      -158.28502609    409.389016   -0.00007   -0.00000    0.03609    6
   10      0.562D-06      0.129D-06      -158.28502609    409.388696   -0.00007   -0.00000    0.03610    6

 Final alpha occupancy:  17
 Final beta  occupancy:  17

 !UKS STATE 1.1 Energy               -158.285026092362
 Nuclear energy                       134.07051350
 One-electron energy                 -476.40144566
 Two-electron energy                  204.69434781
 Density functional                   -20.64844174     B97DF=-20.64844174
 Virial quotient                       -1.01324880
 !UKS STATE 1.1 Dipole moment          -0.00006596    -0.00000000     0.03610399
 Dipole moment /Debye                  -0.00016764    -0.00000000     0.09176119

 Orbital energies for positive spin:

         1.1          2.1          3.1          4.1          5.1          6.1          7.1          8.1          9.1         10.1
    -10.172459   -10.158251   -10.158248   -10.158227    -0.790510    -0.670462    -0.670459    -0.549702    -0.456786    -0.425241

        11.1         12.1         13.1         14.1         15.1         16.1         17.1         18.1         19.1
     -0.425236    -0.377463    -0.377453    -0.357696    -0.323957    -0.323931    -0.316579     0.058514     0.103628

 Orbital energies for negative spin:

         1.1          2.1          3.1          4.1          5.1          6.1          7.1          8.1          9.1         10.1
    -10.172459   -10.158251   -10.158248   -10.158227    -0.790510    -0.670462    -0.670459    -0.549702    -0.456786    -0.425241

        11.1         12.1         13.1         14.1         15.1         16.1         17.1         18.1         19.1
     -0.425236    -0.377463    -0.377453    -0.357696    -0.323957    -0.323931    -0.316579     0.058514     0.103628

 HOMO     17.1    -0.316579 =      -8.6146eV
 LUMO     18.1     0.058514 =       1.5922eV
 LUMO-HOMO         0.375093 =      10.2068eV

 EXPECTATION VALUE OF S**2:             0.00000000

 Natural orbitals saved to record    2200.2 (Orbital set 3)

 Orbital spaces for UNO-CAS (Min. occupation: 0.020  Max. occupation: 1.980):

 Closed:       17
 Active:        0


 **********************************************************************************************************************************
 DATASETS  * FILE   NREC   LENGTH (MB)   RECORD NAMES
              1      20       89.03       500      610      700      900      950      970     1000      129      960     1100   
                                          VAR    BASINP    GEOM    SYMINP    ZMAT    AOBASIS   BASIS     P2S    ABASIS      S 
                                         1400     1410     1200     1210     1080     1600     1650     1300     1700     1800   
                                           T        V       H0       H01     AOSYM     SMH    MOLCAS    ERIS     OPER     GRID   

              2       5        3.45       700     1000      520     1800     2200   
                                         GEOM     BASIS   MCVARS    GRID      UKS  

 PROGRAMS   *        TOTAL       UKS       INT
 CPU TIMES  *        20.29     17.59      2.55
 REAL TIME  *        21.56 SEC
 DISK USED  *       280.45 MB      
 **********************************************************************************************************************************


 PROGRAM * Intrinsic Basis Bonding Analysis (IBBA)          Author: G. Knizia

 Molecular orbitals read from record     2200.2  Type=UKS/ALPHA (state 1.1)
 Fock matrix read from record            2200.2  Type=UKS/TOTAL (state 1.1)
 Orbital energies read from record       2200.2  Type=UKS/ALPHA (state 1.1)
 Density matrix read from record         2200.2  Type=UKS/CHARGE (state 1.1)

 Number of core orbitals:           4 (   4 )
 Number of closed-shell orbitals:  13 (  13 )

 Basis set MINAO-AUTO-PP generated.      Number of basis functions:   30 

 Polarized AO type:                A = (O Ot + (1-O)(1-Ot)) P12
 Orthogonalization method:         Symmetric (Loewdin)
 Localization functional:          L = sum[A,i] <i|n_A|i>^4 -> max

 Localization group 1:  17 orbitals, occupancy  2.000
 Iterative localization: IB/PM,    7 iter; Final gradient 0.11E-08

 Bond order analysis:       [THRPRINT= 0.020]

   CEN ATOM   CEN ATOM     WIBERG.BO      RENORM.BO
     1   C  -   3   C       1.013744       1.009524
     1   C  -   5   C       1.013737       1.009511
     1   C  -   4   C       1.013737       1.009511
     1   C  -   2   H       0.934871       0.956370

     2   H  -   1   C       0.934871       0.956370

     3   C  -   1   C       1.013744       1.009524
     3   C  -   9   H       0.965907       0.983730
     3   C  -  10   H       0.965907       0.983730
     3   C  -   6   H       0.964394       0.978804

     4   C  -   1   C       1.013737       1.009511
     4   C  -  11   H       0.965908       0.983729
     4   C  -  12   H       0.965905       0.983732
     4   C  -   7   H       0.964391       0.978801

     5   C  -   1   C       1.013737       1.009511
     5   C  -  14   H       0.965908       0.983729
     5   C  -  13   H       0.965905       0.983732
     5   C  -   8   H       0.964391       0.978801

     6   H  -   3   C       0.964394       0.978804

     7   H  -   4   C       0.964391       0.978801

     8   H  -   5   C       0.964391       0.978801

     9   H  -   3   C       0.965907       0.983730

    10   H  -   3   C       0.965907       0.983730

    11   H  -   4   C       0.965908       0.983729

    12   H  -   4   C       0.965905       0.983732

    13   H  -   5   C       0.965905       0.983732

    14   H  -   5   C       0.965908       0.983729


 Valency analysis:

   CEN ATOM   TOT.VALENCE
     1   C       3.982408
     2   H       0.986453
     3   C       3.945547
     4   C       3.945541
     5   C       3.945541
     6   H       0.985233
     7   H       0.985229
     8   H       0.985229
     9   H       0.984192
    10   H       0.984192
    11   H       0.984196
    12   H       0.984191
    13   H       0.984191
    14   H       0.984196

 Total charge composition:

   CEN ATOM         s          p       ELECTRONS ->P.CHARGE
     1   C       2.95287    3.12014      6.07301   -0.07301
     2   H       0.88361                 0.88361    0.11639
     3   C       3.02263    3.36480      6.38744   -0.38744
     4   C       3.02263    3.36481      6.38744   -0.38744
     5   C       3.02263    3.36481      6.38744   -0.38744
     6   H       0.87848                 0.87848    0.12152
     7   H       0.87846                 0.87846    0.12154
     8   H       0.87846                 0.87846    0.12154
     9   H       0.87427                 0.87427    0.12573
    10   H       0.87427                 0.87427    0.12573
    11   H       0.87429                 0.87429    0.12571
    12   H       0.87427                 0.87427    0.12573
    13   H       0.87427                 0.87427    0.12573
    14   H       0.87429                 0.87429    0.12571

 Total charge composition, AO contributions:

   CEN ATOM SHL      SPHERICAL COMPONENTS
     1   C  1s       1.99160
     1   C  2s       0.96127
     1   C  2p       1.00645    1.00642    1.10727

     2   H  1s       0.88361

     3   C  1s       1.99101
     3   C  2s       1.03163
     3   C  2p       1.06558    1.15550    1.14373

     4   C  1s       1.99101
     4   C  2s       1.03163
     4   C  2p       1.13307    1.08800    1.14374

     5   C  1s       1.99101
     5   C  2s       1.03163
     5   C  2p       1.13307    1.08800    1.14374

     6   H  1s       0.87848

     7   H  1s       0.87846

     8   H  1s       0.87846

     9   H  1s       0.87427

    10   H  1s       0.87427

    11   H  1s       0.87429

    12   H  1s       0.87427

    13   H  1s       0.87427

    14   H  1s       0.87429

 Summary of localized orbital composition:   [THRPRINT= 0.020]

   ORB  GRP  ORB.ENERGY      CENTERS/CHARGES
     1   1   -10.069277      C  1   2.000
     2   1   -10.044517      C  3   2.000
     3   1   -10.044512      C  5   2.000
     4   1   -10.044512      C  4   2.000
     5   1    -0.547516      C  3   1.006   C  1   0.978
     6   1    -0.547501      C  5   1.006   C  1   0.978
     7   1    -0.547501      C  4   1.006   C  1   0.978
     8   1    -0.487519      C  5   1.124   H 14   0.867
     9   1    -0.487519      C  4   1.124   H 11   0.867
    10   1    -0.487519      C  4   1.124   H 12   0.867
    11   1    -0.487519      C  5   1.124   H 13   0.867
    12   1    -0.487518      C  3   1.124   H 10   0.867
    13   1    -0.487518      C  3   1.124   H  9   0.867
    14   1    -0.486810      C  3   1.120   H  6   0.871
    15   1    -0.486796      C  5   1.120   H  8   0.871
    16   1    -0.486796      C  4   1.120   H  7   0.871
    17   1    -0.481885      C  1   1.099   H  2   0.871   (other: 0.030)

 Localized orbitals saved to record      2200.2  (orbital set 4)


 **********************************************************************************************************************************
 DATASETS  * FILE   NREC   LENGTH (MB)   RECORD NAMES
              1      20       89.03       500      610      700      900      950      970     1000      129      960     1100   
                                          VAR    BASINP    GEOM    SYMINP    ZMAT    AOBASIS   BASIS     P2S    ABASIS      S 
                                         1400     1410     1200     1210     1080     1600     1650     1300     1700     1800   
                                           T        V       H0       H01     AOSYM     SMH    MOLCAS    ERIS     OPER     GRID   

              2       5        3.54       700     1000      520     1800     2200   
                                         GEOM     BASIS   MCVARS    GRID      UKS  

 PROGRAMS   *        TOTAL      IBBA       UKS       INT
 CPU TIMES  *        20.32      0.03     17.59      2.55
 REAL TIME  *        21.68 SEC
 DISK USED  *       280.45 MB      
 **********************************************************************************************************************************
 Molecular orbitals read from record     2200.2  Type=UKS/LOCAL(IBO)  
 Occupation numbers read from record     2200.2  Type=UKS/LOCAL(IBO)  
 Orbital energies read from record       2200.2  Type=UKS/LOCAL(IBO)  
 Redundancy group numbers read from rec  2200.2  Type=UKS/BETA (state 1.1)

 IBBA/SVP energy=      0.000000000000

        UKS-SCF 
   -158.28502609
 **********************************************************************************************************************************
 Molpro calculation terminated
