
 Primary working directories    : /tmp/sb13343
 Secondary working directories  : /tmp/sb13343
 Wavefunction directory         : /panfs/panasas01/chem/sb13343/wfu/
 Main file repository           : /tmp/sb13343/

 SHA1      : b4a5b34a9e711420743f49e6833241d17c61fb3c
 NAME      : 2099.9.b4a5b34
 ARCHNAME  : linux/x86_64_openmp
 FC        : /cm/shared/languages/GCC-6.1/bin/gfortran
 BLASLIB   : -lblas
 id        : simonbennie

 Nodes     nprocs
 node32-007    1

 Using customized tuning parameters: mindgm=1; mindgv=20; mindgc=4; mindgr=1; noblas=0; minvec=7
 default implementation of scratch files=df  

 memory,500,m
 geomtyp=xyz
 nosym
 noorient
 geometry={
 C         -1.53233        0.02247        0.00000
 C         -0.00192        0.01421        0.00000
 O          0.37239        1.40356        0.00000
 H          1.34248        1.44036        0.00000
 H         -1.92991       -0.99819        0.00000
 H         -1.90797        0.54382       -0.88653
 H         -1.90797        0.54382        0.88653
 C          0.54303       -0.66466       -1.26580
 C          0.54303       -0.66466        1.26580
 H          0.17836       -0.14752       -2.15943
 H          0.17836       -0.14752        2.15943
 H          0.23752       -1.71600       -1.32280
 H          0.23752       -1.71600        1.32280
 H          1.64084       -0.63767       -1.28032
 H          1.64084       -0.63767        1.28032
 }
 basis={ default,sto-3g }
 {uks,MM05,direct;wf,42,1,0}
 {ibba,bonds=1}

 Variables initialized (895), CPU time= 0.00 sec
 Commands  initialized (725), CPU time= 0.02 sec, 591 directives.
 Default parameters read. Elapsed time= 0.08 sec

 Checking input...
 Passed
1


                                         ***  PROGRAM SYSTEM MOLPRO  ***
                                       Copyright, TTI GmbH Stuttgart, 2015
                                    Version 2099.9 linked May 26 2017 16:03:21


 **********************************************************************************************************************************
 LABEL *                                                                                 
  64 bit serial version                                                                  DATE: 09-Jun-17          TIME: 03:27:37  
 **********************************************************************************************************************************

 SHA1:             b4a5b34a9e711420743f49e6833241d17c61fb3c
 **********************************************************************************************************************************
 SETTING GEOMTYP        =    XYZ

 Variable memory set to  500000000 words,  buffer space 

 ZSYMEL=NOSYM

 SETTING BASIS          =    STO-3G


 Recomputing integrals since basis changed


 Using spherical harmonics

 Library entry C      S STO-3G               selected for orbital group  1
 Library entry C      P STO-3G               selected for orbital group  1
 Library entry O      S STO-3G               selected for orbital group  2
 Library entry O      P STO-3G               selected for orbital group  2
 Library entry H      S STO-3G               selected for orbital group  3


 PROGRAM * SEWARD (Integral evaluation for generally contracted gaussian basis sets)     Author: Roland Lindh, 1990

 Geometry written to block  1 of record 700


 Point group  C1  



 ATOMIC COORDINATES

 NR  ATOM    CHARGE       X              Y              Z

   1  C       6.00   -2.895684032    0.042462146    0.000000000
   2  C       6.00   -0.003628274    0.026853008    0.000000000
   3  O       8.00    0.703715112    2.652343999    0.000000000
   4  H       1.00    2.536919528    2.721885921    0.000000000
   5  H       1.00   -3.647001345   -1.886305720    0.000000000
   6  H       1.00   -3.605540754    1.027670861   -1.675298901
   7  H       1.00   -3.605540754    1.027670861    1.675298901
   8  C       6.00    1.026177977   -1.256025366   -2.392015328
   9  C       6.00    1.026177977   -1.256025366    2.392015328
  10  H       1.00    0.337051552   -0.278772398   -4.080731285
  11  H       1.00    0.337051552   -0.278772398    4.080731285
  12  H       1.00    0.448847749   -3.242770030   -2.499729718
  13  H       1.00    0.448847749   -3.242770030    2.499729718
  14  H       1.00    3.100738214   -1.205021658   -2.419454152
  15  H       1.00    3.100738214   -1.205021658    2.419454152

 Bond lengths in Bohr (Angstrom)

 1-2  2.892097881  1-5  2.069933136  1-6  2.069096224  1-7  2.069096224  2-3  2.719106031
     ( 1.530432290)     ( 1.095361444)     ( 1.094918569)     ( 1.094918569)     ( 1.438888946)

  2- 8  2.903104402   2- 9  2.903104402   3- 4  1.834522965   8-10  2.069222119   8-12  2.071730422
       ( 1.536256691)       ( 1.536256691)       ( 0.970787746)       ( 1.094985190)       ( 1.096312526)

  8-14  2.075368508   9-11  2.069222119   9-13  2.071730422   9-15  2.075368508
       ( 1.098237719)       ( 1.094985190)       ( 1.096312526)       ( 1.098237719)

 Bond angles

  1-2-3  104.76902697   1-2-8  110.92255387   1-2-9  110.92255387   2-1-5  110.97328220

  2- 1- 6  110.22090701   2- 1- 7  110.22090701   2- 3- 4  107.25071562   2- 8-10  110.21836376

  2- 8-12  111.57747468   2- 8-14  110.77023896   2- 9-11  110.21836376   2- 9-13  111.57747468

  2- 9-15  110.77023896   3- 2- 8  109.53648747   3- 2- 9  109.53648747   5- 1- 6  108.61190457

  5- 1- 7  108.61190457   6- 1- 7  108.12870271   8- 2- 9  110.96453384  10- 8-12  108.52192632

 10- 8-14  108.08997829  11- 9-13  108.52192632  11- 9-15  108.08997829  12- 8-14  107.54424578

 13- 9-15  107.54424578

 NUCLEAR CHARGE:                   42
 NUMBER OF PRIMITIVE AOS:         105
 NUMBER OF SYMMETRY AOS:          105
 NUMBER OF CONTRACTIONS:           35   (  35A   )
 NUMBER OF CORE ORBITALS:           5   (   5A   )
 NUMBER OF VALENCE ORBITALS:       30   (  30A   )


 NUCLEAR REPULSION ENERGY  198.77359127


 Eigenvalues of metric

         1 0.207E+00 0.227E+00 0.228E+00 0.304E+00 0.354E+00 0.360E+00 0.361E+00 0.363E+00


 Contracted 2-electron integrals neglected if value below      1.0D-11
 AO integral compression algorithm  1   Integral accuracy      1.0D-11

     1.573 MB (compressed) written to integral file ( 87.8%)


 NUMBER OF SORTED TWO-ELECTRON INTEGRALS:     198765.     BUFFER LENGTH:  32768
 NUMBER OF SEGMENTS:   1  SEGMENT LENGTH:     198765      RECORD LENGTH: 524288

 Memory used in sort:       0.76 MW

 SORT1 READ      224962. AND WROTE      188577. INTEGRALS IN      1 RECORDS. CPU TIME:     0.01 SEC, REAL TIME:     0.01 SEC
 SORT2 READ      188577. AND WROTE      198765. INTEGRALS IN      6 RECORDS. CPU TIME:     0.02 SEC, REAL TIME:     0.03 SEC

 FILE SIZES:   FILE 1:    31.8 MBYTE,  FILE 4:     4.2 MBYTE,   TOTAL:     36.0 MBYTE

 OPERATOR DM      FOR CENTER  0  COORDINATES:    0.000000    0.000000    0.000000


 **********************************************************************************************************************************
 DATASETS  * FILE   NREC   LENGTH (MB)   RECORD NAMES
              1      19       31.10       500      610      700      900      950      970     1000      129      960     1100   
                                          VAR    BASINP    GEOM    SYMINP    ZMAT    AOBASIS   BASIS     P2S    ABASIS      S 
                                         1400     1410     1200     1210     1080     1600     1650     1300     1700   
                                           T        V       H0       H01     AOSYM     SMH    MOLCAS    ERIS     OPER   

 PROGRAMS   *        TOTAL       INT
 CPU TIMES  *         0.62      0.47
 REAL TIME  *         0.94 SEC
 DISK USED  *        36.55 MB      
 **********************************************************************************************************************************

 Density functional group MM05=M05X+M05C
 Functional: M05X(Automatically generated (new) M05X)                          Gradient terms: 2
 Functional: M05C(Automatically generated (new) M05C)                          Gradient terms: 2
 Use grid at  1800.2


 Exact exchange will be calculated, factor:  0.2800

 Functional: M05X                      Factor:  0.7200
 Functional: M05C                      Factor:  1.0000

 Generated new metagrid on record  1800.2 with target accuracy 1.0D-06 and 53396 points in CPU time    1.6
 Computed new grid on record 1800.1 in CPU time    1.8
   59039 words reserved for DFT integration

 PROGRAM * UKS-SCF (Unrestricted Kohn-Sham)     Authors: W. Meyer, H.-J. Werner, P.J. Knowles, 1993

 NUMBER OF ELECTRONS:      21+   21-    SPACE SYMMETRY=1    SPIN SYMMETRY: Singlet 
 CONVERGENCE THRESHOLDS:    1.00E-05 (Density)    1.00E-06 (Energy)
 MAX. NUMBER OF ITERATIONS:       60
 INTERPOLATION TYPE:            DIIS
 INTERPOLATION STEPS:              2 (START)      1 (STEP)
 LEVEL SHIFTS:                 -0.20 (ALPHA)  -0.20 (BETA) 



 Use fine grid record 1800.2 for energy threshold  1.0D-06
 Orbital guess generated from atomic densities. Full valence occupancy:   21

 Molecular orbital dump at record        2200.2

 Initial alpha occupation  21
 Initial beta  occupation  21

 ITERATION    DDIFF          GRAD             ENERGY        2-EL.EN.            DIPOLE MOMENTS         DIIS
    1      0.000D+00      0.000D+00      -230.41595991    620.544290    0.76763   -1.12077    0.00000    0
    2      0.517D-01      0.184D-01      -230.71048615    604.603664    0.31045   -0.42748    0.00000    1
    3      0.525D-02      0.230D-02      -230.71415890    605.736931    0.34146   -0.41745    0.00000    2
    4      0.119D-02      0.434D-03      -230.71439092    605.698404    0.34534   -0.41583    0.00000    3
    5      0.558D-03      0.138D-03      -230.71442199    605.693197    0.34547   -0.40967    0.00000    4
    6      0.134D-03      0.300D-04      -230.71442376    605.690575    0.34553   -0.40921    0.00000    5
    7      0.281D-04      0.554D-05      -230.71442382    605.691149    0.34540   -0.40897    0.00000    5
    8      0.473D-05      0.175D-05      -230.71442382    605.691004    0.34542   -0.40901    0.00000    6
    9      0.165D-05      0.382D-06      -230.71442382    605.691081    0.34543   -0.40901    0.00000    6

 Final alpha occupancy:  21
 Final beta  occupancy:  21

 !UKS STATE 1.1 Energy               -230.714423822823
 Nuclear energy                       198.77359127
 One-electron energy                 -707.35133269
 Two-electron energy                  302.84554064
 Density functional                   -24.98222305     M05X=-32.74100949 M05C= -1.40869621
 Virial quotient                       -1.01474343
 !UKS STATE 1.1 Dipole moment           0.34542596    -0.40900923     0.00000000
 Dipole moment /Debye                   0.87792772    -1.03952967     0.00000000

 Orbital energies for positive spin:

         1.1          2.1          3.1          4.1          5.1          6.1          7.1          8.1          9.1         10.1
    -18.946473   -10.136422   -10.072343   -10.072277   -10.071878    -0.963148    -0.762393    -0.673632    -0.672202    -0.531996

        11.1         12.1         13.1         14.1         15.1         16.1         17.1         18.1         19.1         20.1
     -0.447979    -0.417434    -0.417314    -0.374058    -0.368984    -0.344379    -0.342852    -0.308776    -0.305416    -0.211371

        21.1         22.1         23.1
     -0.124095     0.314077     0.380429

 Orbital energies for negative spin:

         1.1          2.1          3.1          4.1          5.1          6.1          7.1          8.1          9.1         10.1
    -18.946473   -10.136422   -10.072343   -10.072277   -10.071878    -0.963148    -0.762393    -0.673632    -0.672202    -0.531996

        11.1         12.1         13.1         14.1         15.1         16.1         17.1         18.1         19.1         20.1
     -0.447979    -0.417434    -0.417314    -0.374058    -0.368984    -0.344379    -0.342852    -0.308776    -0.305416    -0.211371

        21.1         22.1         23.1
     -0.124095     0.314077     0.380429

 HOMO     21.1    -0.124095 =      -3.3768eV
 LUMO     22.1     0.314077 =       8.5465eV
 LUMO-HOMO         0.438172 =      11.9233eV

 EXPECTATION VALUE OF S**2:            -0.00000000

 Natural orbitals saved to record    2200.2 (Orbital set 3)

 Orbital spaces for UNO-CAS (Min. occupation: 0.020  Max. occupation: 1.980):

 Closed:       21
 Active:        0


 **********************************************************************************************************************************
 DATASETS  * FILE   NREC   LENGTH (MB)   RECORD NAMES
              1      20       32.81       500      610      700      900      950      970     1000      129      960     1100   
                                          VAR    BASINP    GEOM    SYMINP    ZMAT    AOBASIS   BASIS     P2S    ABASIS      S 
                                         1400     1410     1200     1210     1080     1600     1650     1300     1700     1800   
                                           T        V       H0       H01     AOSYM     SMH    MOLCAS    ERIS     OPER     GRID   

              2       5        3.05       700     1000      520     1800     2200   
                                         GEOM     BASIS   MCVARS    GRID      UKS  

 PROGRAMS   *        TOTAL       UKS       INT
 CPU TIMES  *        16.11     15.49      0.47
 REAL TIME  *        17.08 SEC
 DISK USED  *        36.55 MB      
 **********************************************************************************************************************************


 PROGRAM * Intrinsic Basis Bonding Analysis (IBBA)          Author: G. Knizia

 Molecular orbitals read from record     2200.2  Type=UKS/ALPHA (state 1.1)
 Fock matrix read from record            2200.2  Type=UKS/TOTAL (state 1.1)
 Orbital energies read from record       2200.2  Type=UKS/ALPHA (state 1.1)
 Density matrix read from record         2200.2  Type=UKS/CHARGE (state 1.1)

 Number of core orbitals:           5 (   5 )
 Number of closed-shell orbitals:  16 (  16 )

 Basis set MINAO-AUTO-PP generated.      Number of basis functions:   35 

 Polarized AO type:                A = (O Ot + (1-O)(1-Ot)) P12
 Orthogonalization method:         Symmetric (Loewdin)
 Localization functional:          L = sum[A,i] <i|n_A|i>^4 -> max

 Localization group 1:  21 orbitals, occupancy  2.000
 Iterative localization: IB/PM,    7 iter; Final gradient 0.26E-08

 Bond order analysis:       [THRPRINT= 0.020]

   CEN ATOM   CEN ATOM     WIBERG.BO      RENORM.BO
     1   C  -   2   C       0.990955       0.986326
     1   C  -   5   H       0.967285       0.990555
     1   C  -   6   H       0.963670       0.987606
     1   C  -   7   H       0.963670       0.987606

     2   C  -   3   O       0.999070       0.980984
     2   C  -   1   C       0.990955       0.986326
     2   C  -   8   C       0.986344       0.961406
     2   C  -   9   C       0.986344       0.961406

     3   O  -   2   C       0.999070       0.980984
     3   O  -   4   H       0.926309       0.982598
     3   O  -   9   C       0.027444       0.014230
     3   O  -   8   C       0.027444       0.014230

     4   H  -   3   O       0.926309       0.982598

     5   H  -   1   C       0.967285       0.990555

     6   H  -   1   C       0.963670       0.987606

     7   H  -   1   C       0.963670       0.987606

     8   C  -   2   C       0.986344       0.961406
     8   C  -  14   H       0.966381       0.986986
     8   C  -  12   H       0.964951       0.988637
     8   C  -  10   H       0.964333       0.987305
     8   C  -   3   O       0.027444       0.014230

     9   C  -   2   C       0.986344       0.961406
     9   C  -  15   H       0.966381       0.986986
     9   C  -  13   H       0.964951       0.988637
     9   C  -  11   H       0.964333       0.987305
     9   C  -   3   O       0.027444       0.014230

    10   H  -   8   C       0.964333       0.987305

    11   H  -   9   C       0.964333       0.987305

    12   H  -   8   C       0.964951       0.988637

    13   H  -   9   C       0.964951       0.988637

    14   H  -   8   C       0.966381       0.986986

    15   H  -   9   C       0.966381       0.986986


 Valency analysis:

   CEN ATOM   TOT.VALENCE
     1   C       3.933602
     2   C       3.971723
     3   O       2.027985
     4   H       0.942898
     5   H       0.982689
     6   H       0.981026
     7   H       0.981026
     8   C       3.935895
     9   C       3.935895
    10   H       0.981543
    11   H       0.981543
    12   H       0.982008
    13   H       0.982008
    14   H       0.983811
    15   H       0.983811

 Total charge composition:

   CEN ATOM         s          p       ELECTRONS ->P.CHARGE
     1   C       3.00219    3.39227      6.39445   -0.39445
     2   C       2.94831    2.92604      5.87435    0.12565
     3   O       3.67880    4.67387      8.35267   -0.35267
     4   H       0.76104                 0.76104    0.23896
     5   H       0.86843                 0.86843    0.13157
     6   H       0.86225                 0.86225    0.13775
     7   H       0.86225                 0.86225    0.13775
     8   C       3.00729    3.40221      6.40950   -0.40950
     9   C       3.00729    3.40221      6.40950   -0.40950
    10   H       0.86414                 0.86414    0.13586
    11   H       0.86414                 0.86414    0.13586
    12   H       0.86586                 0.86586    0.13414
    13   H       0.86586                 0.86586    0.13414
    14   H       0.87277                 0.87277    0.12723
    15   H       0.87277                 0.87277    0.12723

 Total charge composition, AO contributions:

   CEN ATOM SHL      SPHERICAL COMPONENTS
     1   C  1s       1.99143
     1   C  2s       1.01076
     1   C  2p       1.04912    1.16746    1.17568

     2   C  1s       1.99287
     2   C  2s       0.95543
     2   C  2p       1.03014    0.87012    1.02578

     3   O  1s       1.99725
     3   O  2s       1.68155
     3   O  2p       1.36164    1.35673    1.95550

     4   H  1s       0.76104

     5   H  1s       0.86843

     6   H  1s       0.86225

     7   H  1s       0.86225

     8   C  1s       1.99153
     8   C  2s       1.01576
     8   C  2p       1.15098    1.15084    1.10039

     9   C  1s       1.99153
     9   C  2s       1.01576
     9   C  2p       1.15098    1.15084    1.10039

    10   H  1s       0.86414

    11   H  1s       0.86414

    12   H  1s       0.86586

    13   H  1s       0.86586

    14   H  1s       0.87277

    15   H  1s       0.87277

 Summary of localized orbital composition:   [THRPRINT= 0.020]

   ORB  GRP  ORB.ENERGY      CENTERS/CHARGES
     1   1   -18.769484      O  3   2.000
     2   1   -10.042078      C  2   2.000
     3   1    -9.959047      C  9   2.000
     4   1    -9.959047      C  8   2.000
     5   1    -9.957722      C  1   2.000
     6   1    -0.676348      O  3   1.238   H  4   0.753
     7   1    -0.630444      O  3   1.168   C  2   0.816
     8   1    -0.538653      C  2   0.996   C  1   0.983   (other: 0.022)
     9   1    -0.537863      C  9   0.998   C  2   0.988
    10   1    -0.537863      C  8   0.998   C  2   0.988
    11   1    -0.503940      O  3   1.986
    12   1    -0.483049      C  8   1.125   H 14   0.867
    13   1    -0.483049      C  9   1.125   H 15   0.867
    14   1    -0.481569      C  8   1.131   H 12   0.859
    15   1    -0.481569      C  9   1.131   H 13   0.859
    16   1    -0.479358      C  1   1.128   H  5   0.862
    17   1    -0.477646      C  9   1.134   H 11   0.857
    18   1    -0.477646      C  8   1.134   H 10   0.857
    19   1    -0.472340      C  1   1.135   H  6   0.856
    20   1    -0.472340      C  1   1.135   H  7   0.856
    21   1    -0.144356      O  3   1.955   C  2   0.021   (other: 0.024)

 Localized orbitals saved to record      2200.2  (orbital set 4)


 **********************************************************************************************************************************
 DATASETS  * FILE   NREC   LENGTH (MB)   RECORD NAMES
              1      20       32.81       500      610      700      900      950      970     1000      129      960     1100   
                                          VAR    BASINP    GEOM    SYMINP    ZMAT    AOBASIS   BASIS     P2S    ABASIS      S 
                                         1400     1410     1200     1210     1080     1600     1650     1300     1700     1800   
                                           T        V       H0       H01     AOSYM     SMH    MOLCAS    ERIS     OPER     GRID   

              2       5        3.06       700     1000      520     1800     2200   
                                         GEOM     BASIS   MCVARS    GRID      UKS  

 PROGRAMS   *        TOTAL      IBBA       UKS       INT
 CPU TIMES  *        16.14      0.03     15.49      0.47
 REAL TIME  *        17.21 SEC
 DISK USED  *        36.55 MB      
 **********************************************************************************************************************************
 Molecular orbitals read from record     2200.2  Type=UKS/LOCAL(IBO)  
 Occupation numbers read from record     2200.2  Type=UKS/LOCAL(IBO)  
 Orbital energies read from record       2200.2  Type=UKS/LOCAL(IBO)  
 Redundancy group numbers read from rec  2200.2  Type=UKS/BETA (state 1.1)

 IBBA/STO-3G energy=      0.000000000000

        UKS-SCF 
   -230.71442382
 **********************************************************************************************************************************
 Molpro calculation terminated
