
 Primary working directories    : /tmp/sb13343
 Secondary working directories  : /tmp/sb13343
 Wavefunction directory         : /panfs/panasas01/chem/sb13343/wfu/
 Main file repository           : /tmp/sb13343/

 SHA1      : b4a5b34a9e711420743f49e6833241d17c61fb3c
 NAME      : 2099.9.b4a5b34
 ARCHNAME  : linux/x86_64_openmp
 FC        : /cm/shared/languages/GCC-6.1/bin/gfortran
 BLASLIB   : -lblas
 id        : simonbennie

 Nodes     nprocs
 node32-002    1

 Using customized tuning parameters: mindgm=1; mindgv=20; mindgc=4; mindgr=1; noblas=0; minvec=7
 default implementation of scratch files=df  

 memory,500,m
 geomtyp=xyz
 nosym
 noorient
 geometry={
 C          0.00000        0.00000        0.00000
 C          0.00000        0.00000        1.53307
 O          1.40344        0.00000        1.86307
 C          1.76314        0.00000        3.22887
 H         -1.02289        0.00000       -0.39176
 H          0.51995       -0.88625       -0.37815
 H          0.51995        0.88625       -0.37815
 H          2.85677        0.00000        3.25413
 H          1.40708       -0.89217        3.76475
 H          1.40708        0.89217        3.76475
 C         -0.69252       -1.26694        2.06222
 C         -0.69252        1.26694        2.06222
 H         -0.15366       -2.16088        1.72982
 H         -0.15366        2.16088        1.72982
 H         -1.72011       -1.32515        1.68649
 H         -1.72011        1.32515        1.68649
 H         -0.74365       -1.28188        3.15638
 H         -0.74365        1.28188        3.15638
 }
 basis={ default,sto-3g }
 {uks,M05,direct;wf,50,1,0}
 {ibba,bonds=1}

 Variables initialized (895), CPU time= 0.00 sec
 Commands  initialized (725), CPU time= 0.02 sec, 591 directives.
 Default parameters read. Elapsed time= 0.12 sec

 Checking input...
 Passed
1


                                         ***  PROGRAM SYSTEM MOLPRO  ***
                                       Copyright, TTI GmbH Stuttgart, 2015
                                    Version 2099.9 linked May 26 2017 16:03:21


 **********************************************************************************************************************************
 LABEL *                                                                                 
  64 bit serial version                                                                  DATE: 09-Jun-17          TIME: 01:45:01  
 **********************************************************************************************************************************

 SHA1:             b4a5b34a9e711420743f49e6833241d17c61fb3c
 **********************************************************************************************************************************
 SETTING GEOMTYP        =    XYZ

 Variable memory set to  500000000 words,  buffer space 

 ZSYMEL=NOSYM

 SETTING BASIS          =    STO-3G


 Recomputing integrals since basis changed


 Using spherical harmonics

 Library entry C      S STO-3G               selected for orbital group  1
 Library entry C      P STO-3G               selected for orbital group  1
 Library entry O      S STO-3G               selected for orbital group  2
 Library entry O      P STO-3G               selected for orbital group  2
 Library entry H      S STO-3G               selected for orbital group  4


 PROGRAM * SEWARD (Integral evaluation for generally contracted gaussian basis sets)     Author: Roland Lindh, 1990

 Geometry written to block  1 of record 700


 Point group  C1  



 ATOMIC COORDINATES

 NR  ATOM    CHARGE       X              Y              Z

   1  C       6.00    0.000000000    0.000000000    0.000000000
   2  C       6.00    0.000000000    0.000000000    2.897082430
   3  O       8.00    2.652117232    0.000000000    3.520692051
   4  C       6.00    3.331851719    0.000000000    6.101679992
   5  H       1.00   -1.932981956    0.000000000   -0.740319107
   6  H       1.00    0.982563098   -1.674769778   -0.714599934
   7  H       1.00    0.982563098    1.674769778   -0.714599934
   8  H       1.00    5.398512901    0.000000000    6.149414474
   9  H       1.00    2.658995835   -1.685956957    7.114346427
  10  H       1.00    2.658995835    1.685956957    7.114346427
  11  C       6.00   -1.308673136   -2.394169616    3.897031009
  12  C       6.00   -1.308673136    2.394169616    3.897031009
  13  H       1.00   -0.290375316   -4.083471388    3.268886045
  14  H       1.00   -0.290375316    4.083471388    3.268886045
  15  H       1.00   -3.250536804   -2.504170574    3.187004212
  16  H       1.00   -3.250536804    2.504170574    3.187004212
  17  H       1.00   -1.405294833   -2.422402125    5.964693745
  18  H       1.00   -1.405294833    2.422402125    5.964693745

 Bond lengths in Bohr (Angstrom)

 1-2  2.897082430  1-5  2.069901355  1-6  2.069042560  1-7  2.069042560  2-3  2.724447609
     ( 1.533070000)     ( 1.095344626)     ( 1.094890171)     ( 1.094890171)     ( 1.441715587)

  2-11  2.905954351   2-12  2.905954351   3- 4  2.668995640   4- 8  2.067212379   4- 9  2.078624355
       ( 1.537764818)       ( 1.537764818)       ( 1.412371669)       ( 1.093921681)       ( 1.099960639)

  4-10  2.078624355  11-13  2.070081404  11-15  2.070524757  11-17  2.070111596  12-14  2.070081404
       ( 1.099960639)       ( 1.095439904)       ( 1.095674516)       ( 1.095455880)       ( 1.095439904)

 12-16  2.070524757  12-18  2.070111596
       ( 1.095674516)       ( 1.095455880)

 Bond angles

  1- 2- 3  103.23196371   1- 2-11  110.12706952   1- 2-12  110.12706952   2- 1- 5  110.95650426

  2- 1- 6  110.20481748   2- 1- 7  110.20481748   2- 3- 4  117.98647004   2-11-13  110.26679927

  2-11-15  110.37287188   2-11-17  112.08316935   2-12-14  110.26679927   2-12-16  110.37287188

  2-12-18  112.08316935   3- 2-11  111.07703285   3- 2-12  111.07703285   3- 4- 8  106.07765410

  3- 4- 9  112.87219182   3- 4-10  112.87219182   5- 1- 6  108.65976572   5- 1- 7  108.65976572

  6- 1- 7  108.08288210   8- 4- 9  108.20190897   8- 4-10  108.20190897   9- 4-10  108.40564999

 11- 2-12  110.95103964  13-11-15  108.29648994  13-11-17  108.35544687  14-12-16  108.29648994

 14-12-18  108.35544687  15-11-17  107.33851825  16-12-18  107.33851825

 NUCLEAR CHARGE:                   50
 NUMBER OF PRIMITIVE AOS:         126
 NUMBER OF SYMMETRY AOS:          126
 NUMBER OF CONTRACTIONS:           42   (  42A   )
 NUMBER OF CORE ORBITALS:           6   (   6A   )
 NUMBER OF VALENCE ORBITALS:       36   (  36A   )


 NUCLEAR REPULSION ENERGY  270.15500869


 Eigenvalues of metric

         1 0.207E+00 0.226E+00 0.228E+00 0.234E+00 0.307E+00 0.355E+00 0.359E+00 0.362E+00


 Contracted 2-electron integrals neglected if value below      1.0D-11
 AO integral compression algorithm  1   Integral accuracy      1.0D-11

     2.884 MB (compressed) written to integral file ( 84.3%)


 NUMBER OF SORTED TWO-ELECTRON INTEGRALS:     408156.     BUFFER LENGTH:  32768
 NUMBER OF SEGMENTS:   1  SEGMENT LENGTH:     408156      RECORD LENGTH: 524288

 Memory used in sort:       0.97 MW

 SORT1 READ      453477. AND WROTE      382834. INTEGRALS IN      2 RECORDS. CPU TIME:     0.01 SEC, REAL TIME:     0.03 SEC
 SORT2 READ      382834. AND WROTE      408156. INTEGRALS IN     11 RECORDS. CPU TIME:     0.03 SEC, REAL TIME:     0.06 SEC

 FILE SIZES:   FILE 1:    33.2 MBYTE,  FILE 4:     8.4 MBYTE,   TOTAL:     41.6 MBYTE

 OPERATOR DM      FOR CENTER  0  COORDINATES:    0.000000    0.000000    0.000000


 **********************************************************************************************************************************
 DATASETS  * FILE   NREC   LENGTH (MB)   RECORD NAMES
              1      19       31.98       500      610      700      900      950      970     1000      129      960     1100   
                                          VAR    BASINP    GEOM    SYMINP    ZMAT    AOBASIS   BASIS     P2S    ABASIS      S 
                                         1400     1410     1200     1210     1080     1600     1650     1300     1700   
                                           T        V       H0       H01     AOSYM     SMH    MOLCAS    ERIS     OPER   

 PROGRAMS   *        TOTAL       INT
 CPU TIMES  *         0.92      0.77
 REAL TIME  *         3.08 SEC
 DISK USED  *        42.19 MB      
 **********************************************************************************************************************************

 Density functional group M05=XC-M05
 Functional: XC-M05(via MFM 1.6)                                               Gradient terms: 1
 Use grid at  1800.2


 Exact exchange will be calculated, factor:  0.2800

 Functional: XC-M05                    Factor:  1.0000

 Generated new metagrid on record  1800.2 with target accuracy 1.0D-06 and 66012 points in CPU time    2.0
 Computed new grid on record 1800.1 in CPU time    2.3
   38106 words reserved for DFT integration

 PROGRAM * UKS-SCF (Unrestricted Kohn-Sham)     Authors: W. Meyer, H.-J. Werner, P.J. Knowles, 1993

 NUMBER OF ELECTRONS:      25+   25-    SPACE SYMMETRY=1    SPIN SYMMETRY: Singlet 
 CONVERGENCE THRESHOLDS:    1.00E-05 (Density)    1.00E-06 (Energy)
 MAX. NUMBER OF ITERATIONS:       60
 INTERPOLATION TYPE:            DIIS
 INTERPOLATION STEPS:              2 (START)      1 (STEP)
 LEVEL SHIFTS:                 -0.20 (ALPHA)  -0.20 (BETA) 



 Use fine grid record 1800.2 for energy threshold  1.0D-06
 Orbital guess generated from atomic densities. Full valence occupancy:   25

 Molecular orbital dump at record        2200.2

 Initial alpha occupation  25
 Initial beta  occupation  25

 ITERATION    DDIFF          GRAD             ENERGY        2-EL.EN.            DIPOLE MOMENTS         DIIS
    1      0.000D+00      0.000D+00      -269.19257447    801.138561   -0.94862    0.00000    0.82862    0
    2      0.484D-01      0.171D-01      -269.55658272    780.710644   -0.29681    0.00000    0.14967    1
    3      0.484D-02      0.219D-02      -269.56151145    782.278546   -0.35632    0.00000    0.23945    2
    4      0.119D-02      0.397D-03      -269.56181541    782.247498   -0.36254    0.00000    0.24639    3
    5      0.419D-03      0.115D-03      -269.56184644    782.237421   -0.36110    0.00000    0.24833    4
    6      0.154D-03      0.305D-04      -269.56184929    782.236024   -0.35929    0.00000    0.24817    5
    7      0.329D-04      0.820D-05      -269.56184942    782.236214   -0.35961    0.00000    0.24857    5
    8      0.916D-05      0.297D-05      -269.56184944    782.235954   -0.35937    0.00000    0.24843    6
    9      0.297D-05      0.599D-06      -269.56184944    782.236120   -0.35940    0.00000    0.24844    6

 Final alpha occupancy:  25
 Final beta  occupancy:  25

 !UKS STATE 1.1 Energy               -269.561849438168
 Nuclear energy                       270.15500869
 One-electron energy                 -901.35545536
 Two-electron energy                  391.11806021
 Density functional                   -29.47946299     XC-M05=-29.47946299
 Virial quotient                       -1.01564061
 !UKS STATE 1.1 Dipole moment          -0.35939509     0.00000000     0.24844077
 Dipole moment /Debye                  -0.91343137     0.00000000     0.63143209

 Orbital energies for positive spin:

         1.1          2.1          3.1          4.1          5.1          6.1          7.1          8.1          9.1         10.1
    -18.967425   -10.141191   -10.118623   -10.072986   -10.072197   -10.072122    -0.975659    -0.774902    -0.676083    -0.673657

        11.1         12.1         13.1         14.1         15.1         16.1         17.1         18.1         19.1         20.1
     -0.648137    -0.517654    -0.450577    -0.426740    -0.423071    -0.403740    -0.383593    -0.367524    -0.357800    -0.342305

        21.1         22.1         23.1         24.1         25.1         26.1         27.1
     -0.340554    -0.307088    -0.302328    -0.192472    -0.122435     0.290931     0.378489

 Orbital energies for negative spin:

         1.1          2.1          3.1          4.1          5.1          6.1          7.1          8.1          9.1         10.1
    -18.967425   -10.141191   -10.118623   -10.072986   -10.072197   -10.072122    -0.975659    -0.774902    -0.676083    -0.673657

        11.1         12.1         13.1         14.1         15.1         16.1         17.1         18.1         19.1         20.1
     -0.648137    -0.517654    -0.450577    -0.426740    -0.423071    -0.403740    -0.383593    -0.367524    -0.357800    -0.342305

        21.1         22.1         23.1         24.1         25.1         26.1         27.1
     -0.340554    -0.307088    -0.302328    -0.192472    -0.122435     0.290931     0.378489

 HOMO     25.1    -0.122435 =      -3.3316eV
 LUMO     26.1     0.290931 =       7.9166eV
 LUMO-HOMO         0.413366 =      11.2483eV

 EXPECTATION VALUE OF S**2:            -0.00000000

 Natural orbitals saved to record    2200.2 (Orbital set 3)

 Orbital spaces for UNO-CAS (Min. occupation: 0.020  Max. occupation: 1.980):

 Closed:       25
 Active:        0


 **********************************************************************************************************************************
 DATASETS  * FILE   NREC   LENGTH (MB)   RECORD NAMES
              1      20       34.09       500      610      700      900      950      970     1000      129      960     1100   
                                          VAR    BASINP    GEOM    SYMINP    ZMAT    AOBASIS   BASIS     P2S    ABASIS      S 
                                         1400     1410     1200     1210     1080     1600     1650     1300     1700     1800   
                                           T        V       H0       H01     AOSYM     SMH    MOLCAS    ERIS     OPER     GRID   

              2       5        3.13       700     1000      520     1800     2200   
                                         GEOM     BASIS   MCVARS    GRID      UKS  

 PROGRAMS   *        TOTAL       UKS       INT
 CPU TIMES  *        18.12     17.20      0.77
 REAL TIME  *        29.84 SEC
 DISK USED  *        42.19 MB      
 **********************************************************************************************************************************


 PROGRAM * Intrinsic Basis Bonding Analysis (IBBA)          Author: G. Knizia

 Molecular orbitals read from record     2200.2  Type=UKS/ALPHA (state 1.1)
 Fock matrix read from record            2200.2  Type=UKS/TOTAL (state 1.1)
 Orbital energies read from record       2200.2  Type=UKS/ALPHA (state 1.1)
 Density matrix read from record         2200.2  Type=UKS/CHARGE (state 1.1)

 Number of core orbitals:           6 (   6 )
 Number of closed-shell orbitals:  19 (  19 )

 Basis set MINAO-AUTO-PP generated.      Number of basis functions:   42 

 Polarized AO type:                A = (O Ot + (1-O)(1-Ot)) P12
 Orthogonalization method:         Symmetric (Loewdin)
 Localization functional:          L = sum[A,i] <i|n_A|i>^4 -> max

 Localization group 1:  25 orbitals, occupancy  2.000
 Iterative localization: IB/PM,    7 iter; Final gradient 0.27E-08

 Bond order analysis:       [THRPRINT= 0.020]

   CEN ATOM   CEN ATOM     WIBERG.BO      RENORM.BO
     1   C  -   2   C       0.990929       0.988616
     1   C  -   5   H       0.966852       0.990309
     1   C  -   6   H       0.963705       0.987550
     1   C  -   7   H       0.963705       0.987550

     2   C  -   1   C       0.990929       0.988616
     2   C  -  12   C       0.986388       0.962140
     2   C  -  11   C       0.986388       0.962140
     2   C  -   3   O       0.975840       0.960600

     3   O  -   4   C       1.019175       1.014746
     3   O  -   2   C       0.975840       0.960600
     3   O  -   9   H       0.030458       0.018049
     3   O  -  10   H       0.030458       0.018049
     3   O  -  11   C       0.026013       0.013780
     3   O  -  12   C       0.026013       0.013780

     4   C  -   3   O       1.019175       1.014746
     4   C  -   8   H       0.954632       0.974811
     4   C  -   9   H       0.952827       0.944752
     4   C  -  10   H       0.952827       0.944752

     5   H  -   1   C       0.966852       0.990309

     6   H  -   1   C       0.963705       0.987550

     7   H  -   1   C       0.963705       0.987550

     8   H  -   4   C       0.954632       0.974811

     9   H  -   4   C       0.952827       0.944752
     9   H  -   3   O       0.030458       0.018049

    10   H  -   4   C       0.952827       0.944752
    10   H  -   3   O       0.030458       0.018049

    11   C  -   2   C       0.986388       0.962140
    11   C  -  17   H       0.965703       0.986583
    11   C  -  15   H       0.964331       0.990154
    11   C  -  13   H       0.964146       0.987369
    11   C  -   3   O       0.026013       0.013780

    12   C  -   2   C       0.986388       0.962140
    12   C  -  18   H       0.965703       0.986583
    12   C  -  16   H       0.964331       0.990154
    12   C  -  14   H       0.964146       0.987369
    12   C  -   3   O       0.026013       0.013780

    13   H  -  11   C       0.964146       0.987369

    14   H  -  12   C       0.964146       0.987369

    15   H  -  11   C       0.964331       0.990154

    16   H  -  12   C       0.964331       0.990154

    17   H  -  11   C       0.965703       0.986583

    18   H  -  12   C       0.965703       0.986583


 Valency analysis:

   CEN ATOM   TOT.VALENCE
     1   C       3.933786
     2   C       3.968176
     3   O       2.161996
     4   C       3.900896
     5   H       0.982697
     6   H       0.980975
     7   H       0.980975
     8   H       0.979903
     9   H       0.987367
    10   H       0.987367
    11   C       3.934915
    12   C       3.934915
    13   H       0.981572
    14   H       0.981572
    15   H       0.981667
    16   H       0.981667
    17   H       0.983274
    18   H       0.983274

 Total charge composition:

   CEN ATOM         s          p       ELECTRONS ->P.CHARGE
     1   C       3.00337    3.38959      6.39296   -0.39296
     2   C       2.95106    2.91962      5.87067    0.12933
     3   O       3.65521    4.58362      8.23883   -0.23883
     4   C       3.00812    3.24901      6.25713   -0.25713
     5   H       0.86846                 0.86846    0.13154
     6   H       0.86207                 0.86207    0.13793
     7   H       0.86207                 0.86207    0.13793
     8   H       0.85824                 0.85824    0.14176
     9   H       0.88760                 0.88760    0.11240
    10   H       0.88760                 0.88760    0.11240
    11   C       3.00424    3.40342      6.40766   -0.40766
    12   C       3.00424    3.40342      6.40766   -0.40766
    13   H       0.86425                 0.86425    0.13575
    14   H       0.86425                 0.86425    0.13575
    15   H       0.86460                 0.86460    0.13540
    16   H       0.86460                 0.86460    0.13540
    17   H       0.87067                 0.87067    0.12933
    18   H       0.87067                 0.87067    0.12933

 Total charge composition, AO contributions:

   CEN ATOM SHL      SPHERICAL COMPONENTS
     1   C  1s       1.99145
     1   C  2s       1.01192
     1   C  2p       1.16741    1.17599    1.04618

     2   C  1s       1.99292
     2   C  2s       0.95813
     2   C  2p       0.86000    1.02988    1.02974

     3   O  1s       1.99736
     3   O  2s       1.65785
     3   O  2p       1.32681    1.91222    1.34460

     4   C  1s       1.99201
     4   C  2s       1.01611
     4   C  2p       1.16548    1.17536    0.90818

     5   H  1s       0.86846

     6   H  1s       0.86207

     7   H  1s       0.86207

     8   H  1s       0.85824

     9   H  1s       0.88760

    10   H  1s       0.88760

    11   C  1s       1.99151
    11   C  2s       1.01273
    11   C  2p       1.14982    1.09778    1.15582

    12   C  1s       1.99151
    12   C  2s       1.01273
    12   C  2p       1.14982    1.09778    1.15582

    13   H  1s       0.86425

    14   H  1s       0.86425

    15   H  1s       0.86460

    16   H  1s       0.86460

    17   H  1s       0.87067

    18   H  1s       0.87067

 Summary of localized orbital composition:   [THRPRINT= 0.020]

   ORB  GRP  ORB.ENERGY      CENTERS/CHARGES
     1   1   -18.803882      O  3   2.000
     2   1   -10.047397      C  2   2.000
     3   1   -10.009485      C  4   2.000
     4   1    -9.958969      C  1   2.000
     5   1    -9.958826      C 11   2.000
     6   1    -9.958826      C 12   2.000
     7   1    -0.677081      O  3   1.170   C  4   0.822
     8   1    -0.642795      O  3   1.179   C  2   0.797   (other: 0.024)
     9   1    -0.539192      C  2   0.997   C  1   0.981   (other: 0.022)
    10   1    -0.538506      C 11   0.995   C  2   0.992
    11   1    -0.538506      C 12   0.995   C  2   0.992
    12   1    -0.497497      O  3   1.969   (other: 0.031)
    13   1    -0.497156      C  4   1.129   H 10   0.869
    14   1    -0.497156      C  4   1.129   H  9   0.869
    15   1    -0.496616      C  4   1.141   H  8   0.849
    16   1    -0.481950      C 12   1.127   H 18   0.864
    17   1    -0.481950      C 11   1.127   H 17   0.864
    18   1    -0.481573      C 11   1.131   H 15   0.858
    19   1    -0.481573      C 12   1.131   H 16   0.858
    20   1    -0.481443      C  1   1.128   H  5   0.862
    21   1    -0.477054      C 12   1.134   H 14   0.858
    22   1    -0.477054      C 11   1.134   H 13   0.858
    23   1    -0.473586      C  1   1.136   H  6   0.856
    24   1    -0.473586      C  1   1.136   H  7   0.856
    25   1    -0.159159      O  3   1.912   C  2   0.021   (other: 0.067)

 Localized orbitals saved to record      2200.2  (orbital set 4)


 **********************************************************************************************************************************
 DATASETS  * FILE   NREC   LENGTH (MB)   RECORD NAMES
              1      20       34.09       500      610      700      900      950      970     1000      129      960     1100   
                                          VAR    BASINP    GEOM    SYMINP    ZMAT    AOBASIS   BASIS     P2S    ABASIS      S 
                                         1400     1410     1200     1210     1080     1600     1650     1300     1700     1800   
                                           T        V       H0       H01     AOSYM     SMH    MOLCAS    ERIS     OPER     GRID   

              2       5        3.15       700     1000      520     1800     2200   
                                         GEOM     BASIS   MCVARS    GRID      UKS  

 PROGRAMS   *        TOTAL      IBBA       UKS       INT
 CPU TIMES  *        18.17      0.04     17.20      0.77
 REAL TIME  *        30.05 SEC
 DISK USED  *        42.19 MB      
 **********************************************************************************************************************************
 Molecular orbitals read from record     2200.2  Type=UKS/LOCAL(IBO)  
 Occupation numbers read from record     2200.2  Type=UKS/LOCAL(IBO)  
 Orbital energies read from record       2200.2  Type=UKS/LOCAL(IBO)  
 Redundancy group numbers read from rec  2200.2  Type=UKS/BETA (state 1.1)

 IBBA/STO-3G energy=      0.000000000000

        UKS-SCF 
   -269.56184944
 **********************************************************************************************************************************
 Molpro calculation terminated
