
 Primary working directories    : /tmp/sb13343
 Secondary working directories  : /tmp/sb13343
 Wavefunction directory         : /panfs/panasas01/chem/sb13343/wfu/
 Main file repository           : /tmp/sb13343/

 SHA1      : b4a5b34a9e711420743f49e6833241d17c61fb3c
 NAME      : 2099.9.b4a5b34
 ARCHNAME  : linux/x86_64_openmp
 FC        : /cm/shared/languages/GCC-6.1/bin/gfortran
 BLASLIB   : -lblas
 id        : simonbennie

 Nodes     nprocs
 node32-030    1

 Using customized tuning parameters: mindgm=1; mindgv=20; mindgc=4; mindgr=1; noblas=0; minvec=7
 default implementation of scratch files=df  

 memory,500,m
 geomtyp=xyz
 nosym
 noorient
 geometry={
 H         -1.13405        1.76167        0.00000
 C         -1.32915        0.67205        0.00000
 C         -0.06360       -0.12883        0.00000
 C          0.67426       -0.31636        1.28970
 C          0.67426       -0.31636       -1.28970
 H         -1.94006        0.46750        0.88859
 H         -1.94006        0.46750       -0.88859
 H          1.28359        0.56876        1.55544
 H         -0.01165       -0.48291        2.13019
 H          1.36783       -1.16569        1.24157
 H          1.28359        0.56876       -1.55544
 H         -0.01165       -0.48291       -2.13019
 H          1.36783       -1.16569       -1.24157
 }
 basis={ default,svp }
 {uks,VS99,direct;wf,33,1,1}
 {ibba,bonds=1}

 Variables initialized (895), CPU time= 0.00 sec
 Commands  initialized (725), CPU time= 0.01 sec, 591 directives.
 Default parameters read. Elapsed time= 0.07 sec

 Checking input...
 Passed
1


                                         ***  PROGRAM SYSTEM MOLPRO  ***
                                       Copyright, TTI GmbH Stuttgart, 2015
                                    Version 2099.9 linked May 26 2017 16:03:21


 **********************************************************************************************************************************
 LABEL *                                                                                 
  64 bit serial version                                                                  DATE: 08-Jun-17          TIME: 20:45:13  
 **********************************************************************************************************************************

 SHA1:             b4a5b34a9e711420743f49e6833241d17c61fb3c
 **********************************************************************************************************************************
 SETTING GEOMTYP        =    XYZ

 Variable memory set to  500000000 words,  buffer space 

 ZSYMEL=NOSYM

 SETTING BASIS          =    SVP


 Recomputing integrals since basis changed


 Using spherical harmonics

 Library entry H      S def2-SVP             selected for orbital group  1
 Library entry H      P def2-SVP             selected for orbital group  1
 Library entry C      S def2-SVP             selected for orbital group  2
 Library entry C      P def2-SVP             selected for orbital group  2
 Library entry C      D def2-SVP             selected for orbital group  2


 PROGRAM * SEWARD (Integral evaluation for generally contracted gaussian basis sets)     Author: Roland Lindh, 1990

 Geometry written to block  1 of record 700


 Point group  C1  



 ATOMIC COORDINATES

 NR  ATOM    CHARGE       X              Y              Z

   1  H       1.00   -2.143043912    3.329073822    0.000000000
   2  C       6.00   -2.511729478    1.269990442    0.000000000
   3  C       6.00   -0.120186582   -0.243453417    0.000000000
   4  C       6.00    1.274166737   -0.597833757    2.437179783
   5  C       6.00    1.274166737   -0.597833757   -2.437179783
   6  H       1.00   -3.666182065    0.883446963    1.679191737
   7  H       1.00   -3.666182065    0.883446963   -1.679191737
   8  H       1.00    2.425633556    1.074800631    2.939355603
   9  H       1.00   -0.022015309   -0.912567643    4.025475693
  10  H       1.00    2.584824085   -2.202834846    2.346227264
  11  H       1.00    2.425633556    1.074800631   -2.939355603
  12  H       1.00   -0.022015309   -0.912567643   -4.025475693
  13  H       1.00    2.584824085   -2.202834846   -2.346227264

 Bond lengths in Bohr (Angstrom)

 1-2  2.091830159  2-3  2.830192527  2-6  2.074092940  2-7  2.074092940  3-4  2.830132841
     ( 1.106948849)     ( 1.497673388)     ( 1.097562717)     ( 1.097562717)     ( 1.497641803)

  3- 5  2.830132841   4- 8  2.091832255   4- 9  2.074085151   4-10  2.074156104   5-11  2.091832255
       ( 1.497641803)       ( 1.106949959)       ( 1.097558596)       ( 1.097596142)       ( 1.106949959)

  5-12  2.074085151   5-13  2.074156104
       ( 1.097558596)       ( 1.097596142)

 Bond angles

  1-2-3  112.17549786   1-2-6  106.35284965   1-2-7  106.35284965   2-3-4  118.89987932

  2-3-5  118.89987932   3-2-6  111.75744418   3-2-7  111.75744418   3-4-8  112.19808176

  3- 4- 9  111.75014522   3- 4-10  111.74379558   3- 5-11  112.19808176   3- 5-12  111.75014522

  3- 5-13  111.74379558   4- 3- 5  118.89276928   6- 2- 7  108.11431090   8- 4- 9  106.34995457

  8- 4-10  106.34572146   9- 4-10  108.12296896  11- 5-12  106.34995457  11- 5-13  106.34572146

 12- 5-13  108.12296896

 NUCLEAR CHARGE:                   33
 NUMBER OF PRIMITIVE AOS:         163
 NUMBER OF SYMMETRY AOS:          159
 NUMBER OF CONTRACTIONS:          101   ( 101A   )
 NUMBER OF CORE ORBITALS:           4   (   4A   )
 NUMBER OF VALENCE ORBITALS:       25   (  25A   )


 NUCLEAR REPULSION ENERGY  124.92676597


 Eigenvalues of metric

         1 0.371E-02 0.424E-02 0.424E-02 0.242E-01 0.242E-01 0.268E-01 0.277E-01 0.371E-01


 Contracted 2-electron integrals neglected if value below      1.0D-11
 AO integral compression algorithm  1   Integral accuracy      1.0D-11

     53.477 MB (compressed) written to integral file ( 46.4%)


 NUMBER OF SORTED TWO-ELECTRON INTEGRALS:   13268976.     BUFFER LENGTH:  32768
 NUMBER OF SEGMENTS:   1  SEGMENT LENGTH:   13268976      RECORD LENGTH: 524288

 Memory used in sort:      13.83 MW

 SORT1 READ    14422061. AND WROTE    12225547. INTEGRALS IN     35 RECORDS. CPU TIME:     0.17 SEC, REAL TIME:     0.34 SEC
 SORT2 READ    12225547. AND WROTE    13268976. INTEGRALS IN    204 RECORDS. CPU TIME:     0.33 SEC, REAL TIME:     0.43 SEC

 FILE SIZES:   FILE 1:    84.0 MBYTE,  FILE 4:   146.8 MBYTE,   TOTAL:    230.9 MBYTE

 OPERATOR DM      FOR CENTER  0  COORDINATES:    0.000000    0.000000    0.000000


 **********************************************************************************************************************************
 DATASETS  * FILE   NREC   LENGTH (MB)   RECORD NAMES
              1      19       77.16       500      610      700      900      950      970     1000      129      960     1100   
                                          VAR    BASINP    GEOM    SYMINP    ZMAT    AOBASIS   BASIS     P2S    ABASIS      S 
                                         1400     1410     1200     1210     1080     1600     1650     1300     1700   
                                           T        V       H0       H01     AOSYM     SMH    MOLCAS    ERIS     OPER   

 PROGRAMS   *        TOTAL       INT
 CPU TIMES  *         2.22      2.08
 REAL TIME  *         2.94 SEC
 DISK USED  *       231.35 MB      
 **********************************************************************************************************************************

 Density functional group VS99=VSXC
 Functional: VSXC(Automatically generated (new) VSXC)                          Gradient terms: 2
 Use grid at  1800.2

 Functional: VSXC                      Factor:  1.0000

 Generated new metagrid on record  1800.2 with target accuracy 1.0D-06 and 45406 points in CPU time    1.4
 Computed new grid on record 1800.1 in CPU time    1.5
  161317 words reserved for DFT integration

 PROGRAM * UKS-SCF (Unrestricted Kohn-Sham)     Authors: W. Meyer, H.-J. Werner, P.J. Knowles, 1993

 NUMBER OF ELECTRONS:      17+   16-    SPACE SYMMETRY=1    SPIN SYMMETRY: Doublet 
 CONVERGENCE THRESHOLDS:    1.00E-05 (Density)    1.00E-06 (Energy)
 MAX. NUMBER OF ITERATIONS:       60
 INTERPOLATION TYPE:            DIIS
 INTERPOLATION STEPS:              2 (START)      1 (STEP)
 LEVEL SHIFTS:                 -0.20 (ALPHA)  -0.20 (BETA) 



 Use fine grid record 1800.2 for energy threshold  1.0D-06
 Orbital guess generated from atomic densities. Full valence occupancy:   17

 Molecular orbital dump at record        2200.2

 Initial alpha occupation  17
 Initial beta  occupation  16

 ITERATION    DDIFF          GRAD             ENERGY        2-EL.EN.            DIPOLE MOMENTS         DIIS
    1      0.000D+00      0.000D+00      -156.85842709    410.711714    0.12703    0.25667    0.00000    0
    2      0.115D-01      0.518D-02      -157.00419649    396.510164    0.05296    0.10647    0.00000    1
    3      0.311D-02      0.195D-02      -157.02210547    399.571843    0.05789    0.11635    0.00000    2
    4      0.132D-02      0.294D-03      -157.02303168    399.387552    0.05197    0.10432    0.00000    3
    5      0.602D-03      0.128D-03      -157.02321519    399.378757    0.04946    0.09914    0.00000    4
    6      0.301D-03      0.497D-04      -157.02325437    399.351545    0.04604    0.09219    0.00000    5
    7      0.109D-03      0.191D-04      -157.02325846    399.354469    0.04604    0.09218    0.00000    6
    8      0.256D-04      0.374D-05      -157.02325872    399.353006    0.04530    0.09070    0.00000    6
    9      0.123D-04      0.158D-05      -157.02325876    399.353265    0.04541    0.09091    0.00000    7
   10      0.515D-05      0.465D-06      -157.02325876    399.353105    0.04536    0.09083    0.00000    7
   11      0.109D-05      0.113D-06      -157.02325876    399.353265    0.04536    0.09082    0.00000    7

 Final alpha occupancy:  17
 Final beta  occupancy:  16

 !UKS STATE 1.1 Energy               -157.023258763780
 Nuclear energy                       124.92676597
 One-electron energy                 -457.28729291
 Two-electron energy                  199.67663253
 Density functional                   -24.33936435     VSXC=-24.33936435
 Virial quotient                       -1.01000808
 !UKS STATE 1.1 Dipole moment           0.04536013     0.09081950     0.00000000
 Dipole moment /Debye                   0.11528641     0.23082503     0.00000000

 Orbital energies for positive spin:

         1.1          2.1          3.1          4.1          5.1          6.1          7.1          8.1          9.1         10.1
     -9.965126    -9.950074    -9.950067    -9.949853    -0.742415    -0.632014    -0.631968    -0.479820    -0.390086    -0.388421

        11.1         12.1         13.1         14.1         15.1         16.1         17.1         18.1         19.1
     -0.388383    -0.333437    -0.333422    -0.314445    -0.296553    -0.296500    -0.119583     0.051233     0.101482

 Orbital energies for negative spin:

         1.1          2.1          3.1          4.1          5.1          6.1          7.1          8.1          9.1         10.1
     -9.953016    -9.951026    -9.951019    -9.950806    -0.725734    -0.628928    -0.628886    -0.462869    -0.382959    -0.382911

        11.1         12.1         13.1         14.1         15.1         16.1         17.1         18.1         19.1
     -0.374586    -0.329120    -0.329106    -0.313846    -0.288880    -0.288825    -0.044659     0.053671     0.103757

 HOMO     17.1    -0.119583 =      -3.2540eV
 LUMO    -17.1    -0.044659 =      -1.2152eV
 LUMO-HOMO         0.074924 =       2.0388eV

 EXPECTATION VALUE OF S**2:             0.75434431

 Occupation number threshold for canonical orbitals:  1.999000 (occupied),  0.001000 (virtual)

 Number of pseudo-canonical orbitals per symmetry:   16
 Number of active natural orbitals per symmetry:      1

 Natural orbitals saved to record    2200.2 (Orbital set 3)

 Orbital spaces for UNO-CAS (Min. occupation: 0.020  Max. occupation: 1.980):

 Closed:       16
 Active:        1


 **********************************************************************************************************************************
 DATASETS  * FILE   NREC   LENGTH (MB)   RECORD NAMES
              1      20       78.61       500      610      700      900      950      970     1000      129      960     1100   
                                          VAR    BASINP    GEOM    SYMINP    ZMAT    AOBASIS   BASIS     P2S    ABASIS      S 
                                         1400     1410     1200     1210     1080     1600     1650     1300     1700     1800   
                                           T        V       H0       H01     AOSYM     SMH    MOLCAS    ERIS     OPER     GRID   

              2       5        3.39       700     1000      520     1800     2200   
                                         GEOM     BASIS   MCVARS    GRID      UKS  

 PROGRAMS   *        TOTAL       UKS       INT
 CPU TIMES  *        62.52     60.30      2.08
 REAL TIME  *        63.68 SEC
 DISK USED  *       231.35 MB      
 **********************************************************************************************************************************


 PROGRAM * Intrinsic Basis Bonding Analysis (IBBA)          Author: G. Knizia

 Molecular orbitals read from record     2200.2  Type=UKS/ALPHA (state 1.1)
 Fock matrix read from record            2200.2  Type=UKS/TOTAL (state 1.1)
 Orbital energies read from record       2200.2  Type=UKS/ALPHA (state 1.1)
 Density matrix read from record         2200.2  Type=UKS/CHARGE (state 1.1)

 Number of core orbitals:           4 (   4 )
 Number of closed-shell orbitals:  12 (  12 )
 Number of active  orbitals:        1 (   1 )

 Basis set MINAO-AUTO-PP generated.      Number of basis functions:   29 

 Polarized AO type:                A = (O Ot + (1-O)(1-Ot)) P12
 Orthogonalization method:         Symmetric (Loewdin)
 Localization functional:          L = sum[A,i] <i|n_A|i>^4 -> max

 Localization group 1:  16 orbitals, occupancy  2.000
 Iterative localization: IB/PM,    8 iter; Final gradient 0.89E-09

 Bond order analysis:       [THRPRINT= 0.020]

   CEN ATOM   CEN ATOM     WIBERG.BO      RENORM.BO
     1   H  -   2   C       0.884143       0.995931
     1   H  -   3   C       0.051616       0.174261

     2   C  -   3   C       1.127737       1.306271
     2   C  -   6   H       0.947725       0.985756
     2   C  -   7   H       0.947725       0.985756
     2   C  -   1   H       0.884143       0.995931

     3   C  -   5   C       1.127748       1.306209
     3   C  -   4   C       1.127748       1.306209
     3   C  -   2   C       1.127737       1.306271
     3   C  -   1   H       0.051616       0.174261
     3   C  -  11   H       0.051581       0.174153
     3   C  -   8   H       0.051581       0.174153

     4   C  -   3   C       1.127748       1.306209
     4   C  -   9   H       0.947803       0.985749
     4   C  -  10   H       0.947639       0.985757
     4   C  -   8   H       0.884158       0.995922

     5   C  -   3   C       1.127748       1.306209
     5   C  -  12   H       0.947803       0.985749
     5   C  -  13   H       0.947639       0.985757
     5   C  -  11   H       0.884158       0.995922

     6   H  -   2   C       0.947725       0.985756

     7   H  -   2   C       0.947725       0.985756

     8   H  -   4   C       0.884158       0.995922
     8   H  -   3   C       0.051581       0.174153

     9   H  -   4   C       0.947803       0.985749

    10   H  -   4   C       0.947639       0.985757

    11   H  -   5   C       0.884158       0.995922
    11   H  -   3   C       0.051581       0.174153

    12   H  -   5   C       0.947803       0.985749

    13   H  -   5   C       0.947639       0.985757


 Valency analysis:

   CEN ATOM   TOT.VALENCE
     1   H       0.961777
     2   C       3.951273
     3   C       3.598366
     4   C       3.951263
     5   C       3.951263
     6   H       0.978923
     7   H       0.978923
     8   H       0.961767
     9   H       0.978957
    10   H       0.978910
    11   H       0.961767
    12   H       0.978957
    13   H       0.978910
 Localization group 2:   1 orbitals, occupancy  1.000
 Iterative localization: IB/PM,    1 iter; Final gradient 0.00E+00

 Bond order analysis:       [THRPRINT= 0.020]

   CEN ATOM   CEN ATOM     WIBERG.BO      RENORM.BO
     1   H  -   3   C       0.094487       0.500000


     3   C  -  11   H       0.094513       0.500000
     3   C  -   8   H       0.094513       0.500000
     3   C  -   1   H       0.094487       0.500000





     8   H  -   3   C       0.094513       0.500000



    11   H  -   3   C       0.094513       0.500000




 Valency analysis:

   CEN ATOM   TOT.VALENCE
     1   H       0.123259
     2   C       0.011614
     3   C       0.406691
     4   C       0.011611
     5   C       0.011611
     6   H       0.022565
     7   H       0.022565
     8   H       0.123290
     9   H       0.022471
    10   H       0.022680
    11   H       0.123290
    12   H       0.022471
    13   H       0.022680

 Total charge composition:

   CEN ATOM         s          p       ELECTRONS ->P.CHARGE
     1   H       0.87048                 0.87048    0.12952
     2   C       3.02228    3.33212      6.35439   -0.35439
     3   C       3.01416    3.11372      6.12788   -0.12788
     4   C       3.02219    3.33218      6.35437   -0.35437
     5   C       3.02219    3.33218      6.35437   -0.35437
     6   H       0.86623                 0.86623    0.13377
     7   H       0.86623                 0.86623    0.13377
     8   H       0.87047                 0.87047    0.12953
     9   H       0.86630                 0.86630    0.13370
    10   H       0.86625                 0.86625    0.13375
    11   H       0.87047                 0.87047    0.12953
    12   H       0.86630                 0.86630    0.13370
    13   H       0.86625                 0.86625    0.13375

 Total charge composition, AO contributions:

   CEN ATOM SHL      SPHERICAL COMPONENTS
     1   H  1s       0.87048

     2   C  1s       1.99080
     2   C  2s       1.03148
     2   C  2p       1.07505    1.10212    1.15495

     3   C  1s       1.99253
     3   C  2s       1.02163
     3   C  2p       1.03061    1.06259    1.02052

     4   C  1s       1.99080
     4   C  2s       1.03139
     4   C  2p       1.12270    1.13489    1.07459

     5   C  1s       1.99080
     5   C  2s       1.03139
     5   C  2p       1.12270    1.13489    1.07459

     6   H  1s       0.86623

     7   H  1s       0.86623

     8   H  1s       0.87047

     9   H  1s       0.86630

    10   H  1s       0.86625

    11   H  1s       0.87047

    12   H  1s       0.86630

    13   H  1s       0.86625

 Active orbital charges:

   CEN ATOM         s          p       ELECTRONS ->SPIN.DEN
     1   H       0.06598                 0.06598    0.06598
     2   C       0.00030    0.00554      0.00584    0.00584
     3   C       0.01096    0.70504      0.71600    0.71600
     4   C       0.00031    0.00553      0.00584    0.00584
     5   C       0.00031    0.00553      0.00584    0.00584
     6   H       0.01141                 0.01141    0.01141
     7   H       0.01141                 0.01141    0.01141
     8   H       0.06600                 0.06600    0.06600
     9   H       0.01136                 0.01136    0.01136
    10   H       0.01147                 0.01147    0.01147
    11   H       0.06600                 0.06600    0.06600
    12   H       0.01136                 0.01136    0.01136
    13   H       0.01147                 0.01147    0.01147

 Active orbital charges, AO contributions:

   CEN ATOM SHL      SPHERICAL COMPONENTS
     1   H  1s       0.06598

     2   C  1s       0.00000
     2   C  2s       0.00030
     2   C  2p       0.00007    0.00546    0.00000

     3   C  1s       0.00002
     3   C  2s       0.01094
     3   C  2p       0.13799    0.56705    0.00000

     4   C  1s       0.00000
     4   C  2s       0.00031
     4   C  2p       0.00178    0.00327    0.00048

     5   C  1s       0.00000
     5   C  2s       0.00031
     5   C  2p       0.00178    0.00327    0.00048

     6   H  1s       0.01141

     7   H  1s       0.01141

     8   H  1s       0.06600

     9   H  1s       0.01136

    10   H  1s       0.01147

    11   H  1s       0.06600

    12   H  1s       0.01136

    13   H  1s       0.01147

 Summary of localized orbital composition:   [THRPRINT= 0.020]

   ORB  GRP  ORB.ENERGY      CENTERS/CHARGES
     1   1    -9.862226      C  3   2.000
     2   1    -9.836043      C  4   2.000
     3   1    -9.836043      C  5   2.000
     4   1    -9.835814      C  2   2.000
     5   1    -0.540783      C  3   1.005   C  5   0.982
     6   1    -0.540783      C  3   1.005   C  4   0.982
     7   1    -0.540620      C  3   1.005   C  2   0.982
     8   1    -0.447716      C  5   1.106   H 11   0.797   C  3   0.090
     9   1    -0.447716      C  4   1.106   H  8   0.797   C  3   0.090
    10   1    -0.447660      C  2   1.106   H  1   0.798   C  3   0.090
    11   1    -0.442290      C  4   1.125   H  9   0.848   C  3   0.021
    12   1    -0.442290      C  5   1.125   H 12   0.848   C  3   0.021
    13   1    -0.442242      C  4   1.125   H 10   0.848   C  3   0.021
    14   1    -0.442242      C  5   1.125   H 13   0.848   C  3   0.021
    15   1    -0.442214      C  2   1.125   H  6   0.848   C  3   0.021
    16   1    -0.442214      C  2   1.125   H  7   0.848   C  3   0.021
    17   2    -0.081427      C  3   0.716   H 11   0.066   H  8   0.066   H  1   0.066   (other: 0.086)

 Localized orbitals saved to record      2200.2  (orbital set 4)


 **********************************************************************************************************************************
 DATASETS  * FILE   NREC   LENGTH (MB)   RECORD NAMES
              1      20       78.61       500      610      700      900      950      970     1000      129      960     1100   
                                          VAR    BASINP    GEOM    SYMINP    ZMAT    AOBASIS   BASIS     P2S    ABASIS      S 
                                         1400     1410     1200     1210     1080     1600     1650     1300     1700     1800   
                                           T        V       H0       H01     AOSYM     SMH    MOLCAS    ERIS     OPER     GRID   

              2       5        3.47       700     1000      520     1800     2200   
                                         GEOM     BASIS   MCVARS    GRID      UKS  

 PROGRAMS   *        TOTAL      IBBA       UKS       INT
 CPU TIMES  *        62.56      0.04     60.30      2.08
 REAL TIME  *        63.79 SEC
 DISK USED  *       231.35 MB      
 **********************************************************************************************************************************
 Molecular orbitals read from record     2200.2  Type=UKS/LOCAL(IBO)  
 Occupation numbers read from record     2200.2  Type=UKS/LOCAL(IBO)  
 Orbital energies read from record       2200.2  Type=UKS/LOCAL(IBO)  
 Redundancy group numbers read from rec  2200.2  Type=UKS/BETA (state 1.1)

 IBBA/SVP energy=      0.000000000000

        UKS-SCF 
   -157.02325876
 **********************************************************************************************************************************
 Molpro calculation terminated
