
 Primary working directories    : /tmp/sb13343
 Secondary working directories  : /tmp/sb13343
 Wavefunction directory         : /panfs/panasas01/chem/sb13343/wfu/
 Main file repository           : /tmp/sb13343/

 SHA1      : b4a5b34a9e711420743f49e6833241d17c61fb3c
 NAME      : 2099.9.b4a5b34
 ARCHNAME  : linux/x86_64_openmp
 FC        : /cm/shared/languages/GCC-6.1/bin/gfortran
 BLASLIB   : -lblas
 id        : simonbennie

 Nodes     nprocs
 node33-010    1

 Using customized tuning parameters: mindgm=1; mindgv=20; mindgc=4; mindgr=1; noblas=0; minvec=7
 default implementation of scratch files=df  

 memory,500,m
 geomtyp=xyz
 nosym
 noorient
 geometry={
 C         -1.53233        0.02247        0.00000
 C         -0.00192        0.01421        0.00000
 O          0.37239        1.40356        0.00000
 H          1.34248        1.44036        0.00000
 H         -1.92991       -0.99819        0.00000
 H         -1.90797        0.54382       -0.88653
 H         -1.90797        0.54382        0.88653
 C          0.54303       -0.66466       -1.26580
 C          0.54303       -0.66466        1.26580
 H          0.17836       -0.14752       -2.15943
 H          0.17836       -0.14752        2.15943
 H          0.23752       -1.71600       -1.32280
 H          0.23752       -1.71600        1.32280
 H          1.64084       -0.63767       -1.28032
 H          1.64084       -0.63767        1.28032
 }
 basis={ default,svp }
 {ks,MM06-HF,direct;wf,42,1,0}
 {ibba,bonds=1}

 Variables initialized (895), CPU time= 0.00 sec
 Commands  initialized (725), CPU time= 0.02 sec, 591 directives.
 Default parameters read. Elapsed time= 0.08 sec

 Checking input...
 Passed
1


                                         ***  PROGRAM SYSTEM MOLPRO  ***
                                       Copyright, TTI GmbH Stuttgart, 2015
                                    Version 2099.9 linked May 26 2017 16:03:21


 **********************************************************************************************************************************
 LABEL *                                                                                 
  64 bit serial version                                                                  DATE: 09-Jun-17          TIME: 03:38:44  
 **********************************************************************************************************************************

 SHA1:             b4a5b34a9e711420743f49e6833241d17c61fb3c
 **********************************************************************************************************************************
 SETTING GEOMTYP        =    XYZ

 Variable memory set to  500000000 words,  buffer space 

 ZSYMEL=NOSYM

 SETTING BASIS          =    SVP


 Recomputing integrals since basis changed


 Using spherical harmonics

 Library entry C      S def2-SVP             selected for orbital group  1
 Library entry C      P def2-SVP             selected for orbital group  1
 Library entry C      D def2-SVP             selected for orbital group  1
 Library entry O      S def2-SVP             selected for orbital group  2
 Library entry O      P def2-SVP             selected for orbital group  2
 Library entry O      D def2-SVP             selected for orbital group  2
 Library entry H      S def2-SVP             selected for orbital group  3
 Library entry H      P def2-SVP             selected for orbital group  3


 PROGRAM * SEWARD (Integral evaluation for generally contracted gaussian basis sets)     Author: Roland Lindh, 1990

 Geometry written to block  1 of record 700


 Point group  C1  



 ATOMIC COORDINATES

 NR  ATOM    CHARGE       X              Y              Z

   1  C       6.00   -2.895684032    0.042462146    0.000000000
   2  C       6.00   -0.003628274    0.026853008    0.000000000
   3  O       8.00    0.703715112    2.652343999    0.000000000
   4  H       1.00    2.536919528    2.721885921    0.000000000
   5  H       1.00   -3.647001345   -1.886305720    0.000000000
   6  H       1.00   -3.605540754    1.027670861   -1.675298901
   7  H       1.00   -3.605540754    1.027670861    1.675298901
   8  C       6.00    1.026177977   -1.256025366   -2.392015328
   9  C       6.00    1.026177977   -1.256025366    2.392015328
  10  H       1.00    0.337051552   -0.278772398   -4.080731285
  11  H       1.00    0.337051552   -0.278772398    4.080731285
  12  H       1.00    0.448847749   -3.242770030   -2.499729718
  13  H       1.00    0.448847749   -3.242770030    2.499729718
  14  H       1.00    3.100738214   -1.205021658   -2.419454152
  15  H       1.00    3.100738214   -1.205021658    2.419454152

 Bond lengths in Bohr (Angstrom)

 1-2  2.892097881  1-5  2.069933136  1-6  2.069096224  1-7  2.069096224  2-3  2.719106031
     ( 1.530432290)     ( 1.095361444)     ( 1.094918569)     ( 1.094918569)     ( 1.438888946)

  2- 8  2.903104402   2- 9  2.903104402   3- 4  1.834522965   8-10  2.069222119   8-12  2.071730422
       ( 1.536256691)       ( 1.536256691)       ( 0.970787746)       ( 1.094985190)       ( 1.096312526)

  8-14  2.075368508   9-11  2.069222119   9-13  2.071730422   9-15  2.075368508
       ( 1.098237719)       ( 1.094985190)       ( 1.096312526)       ( 1.098237719)

 Bond angles

  1-2-3  104.76902697   1-2-8  110.92255387   1-2-9  110.92255387   2-1-5  110.97328220

  2- 1- 6  110.22090701   2- 1- 7  110.22090701   2- 3- 4  107.25071562   2- 8-10  110.21836376

  2- 8-12  111.57747468   2- 8-14  110.77023896   2- 9-11  110.21836376   2- 9-13  111.57747468

  2- 9-15  110.77023896   3- 2- 8  109.53648747   3- 2- 9  109.53648747   5- 1- 6  108.61190457

  5- 1- 7  108.61190457   6- 1- 7  108.12870271   8- 2- 9  110.96453384  10- 8-12  108.52192632

 10- 8-14  108.08997829  11- 9-13  108.52192632  11- 9-15  108.08997829  12- 8-14  107.54424578

 13- 9-15  107.54424578

 NUCLEAR CHARGE:                   42
 NUMBER OF PRIMITIVE AOS:         195
 NUMBER OF SYMMETRY AOS:          190
 NUMBER OF CONTRACTIONS:          120   ( 120A   )
 NUMBER OF CORE ORBITALS:           5   (   5A   )
 NUMBER OF VALENCE ORBITALS:       30   (  30A   )


 NUCLEAR REPULSION ENERGY  198.77359127


 Eigenvalues of metric

         1 0.176E-02 0.546E-02 0.548E-02 0.123E-01 0.248E-01 0.256E-01 0.256E-01 0.275E-01


 Contracted 2-electron integrals neglected if value below      1.0D-11
 AO integral compression algorithm  1   Integral accuracy      1.0D-11

     101.974 MB (compressed) written to integral file ( 44.9%)


 NUMBER OF SORTED TWO-ELECTRON INTEGRALS:   26357430.     BUFFER LENGTH:  32768
 NUMBER OF SEGMENTS:   2  SEGMENT LENGTH:   15997996      RECORD LENGTH: 524288

 Memory used in sort:      16.56 MW

 SORT1 READ    28411733. AND WROTE    24096425. INTEGRALS IN     70 RECORDS. CPU TIME:     0.34 SEC, REAL TIME:     0.68 SEC
 SORT2 READ    24096425. AND WROTE    26357430. INTEGRALS IN    389 RECORDS. CPU TIME:     0.57 SEC, REAL TIME:     0.74 SEC

 FILE SIZES:   FILE 1:   132.7 MBYTE,  FILE 4:   293.6 MBYTE,   TOTAL:    426.4 MBYTE

 OPERATOR DM      FOR CENTER  0  COORDINATES:    0.000000    0.000000    0.000000


 **********************************************************************************************************************************
 DATASETS  * FILE   NREC   LENGTH (MB)   RECORD NAMES
              1      19      120.44       500      610      700      900      950      970     1000      129      960     1100   
                                          VAR    BASINP    GEOM    SYMINP    ZMAT    AOBASIS   BASIS     P2S    ABASIS      S 
                                         1400     1410     1200     1210     1080     1600     1650     1300     1700   
                                           T        V       H0       H01     AOSYM     SMH    MOLCAS    ERIS     OPER   

 PROGRAMS   *        TOTAL       INT
 CPU TIMES  *         3.86      3.73
 REAL TIME  *         5.03 SEC
 DISK USED  *       426.89 MB      
 **********************************************************************************************************************************

 Density functional group MM06-HF=M06HFX+M06HFC
 Functional: M06HFX(Automatically generated (new) M06HFX)                      Gradient terms: 2
 Functional: M06HFC(Automatically generated (new) M06HFC)                      Gradient terms: 2
 Use grid at  1800.2


 Exact exchange will be calculated, factor:  1.0000

 Functional: M06HFX                    Factor:  1.0000
 Functional: M06HFC                    Factor:  1.0000

 Generated new metagrid on record  1800.2 with target accuracy 1.0D-06 and 53396 points in CPU time    1.5
 Computed new grid on record 1800.1 in CPU time    1.7
  190979 words reserved for DFT integration

 PROGRAM * RKS-SCF (Restricted closed shell Kohn-Sham)     Authors: W. Meyer, H.-J. Werner, P.J. Knowles, 1993

 NUMBER OF ELECTRONS:      21+   21-    SPACE SYMMETRY=1    SPIN SYMMETRY: Singlet 
 CONVERGENCE THRESHOLDS:    1.00E-05 (Density)    1.00E-06 (Energy)
 MAX. NUMBER OF ITERATIONS:       60
 INTERPOLATION TYPE:            DIIS
 INTERPOLATION STEPS:              2 (START)      1 (STEP)
 LEVEL SHIFTS:                  0.00 (CLOSED)  0.00 (OPEN) 



 Use fine grid record 1800.2 for energy threshold  1.0D-06
 Orbital guess generated from atomic densities. Full valence occupancy:   21

 Molecular orbital dump at record        2100.2

 Initial occupancy:  21

 ITERATION    DDIFF          GRAD             ENERGY        2-EL.EN.            DIPOLE MOMENTS         DIIS   ORB.
    1      0.000D+00      0.000D+00      -233.30443340    561.476180    0.73474   -0.83747    0.00000    0    start
    2      0.000D+00      0.634D-02      -233.37691690    553.231520    0.24768   -0.35490   -0.00000    1    diag
    3      0.852D-02      0.391D-02      -233.40117117    556.721139    0.37341   -0.55080   -0.00000    2    diag
    4      0.340D-02      0.811D-03      -233.40256462    556.623287    0.35969   -0.49795   -0.00000    3    diag
    5      0.104D-02      0.354D-03      -233.40282769    556.501805    0.35144   -0.52078   -0.00000    4    diag
    6      0.417D-03      0.577D-04      -233.40283532    556.535790    0.34983   -0.51718   -0.00000    5    diag
    7      0.869D-04      0.840D-05      -233.40283557    556.531909    0.34956   -0.51733   -0.00000    6    diag
    8      0.205D-04      0.244D-05      -233.40283559    556.534120    0.34949   -0.51740   -0.00000    7    diag
    9      0.395D-05      0.103D-05      -233.40283559    556.533240    0.34941   -0.51736   -0.00000    0    orth

 Final occupancy:  21

 !RKS STATE 1.1 Energy               -233.402835594893
 Nuclear energy                       198.77359127
 One-electron energy                 -709.00723461
 Two-electron energy                  278.26661998
 SCF exchange energy                  -32.46288585     Factor= 1.0000
 Density functional                    -1.43581224     M06HFX= 0.09679880 M06HFC=-1.53261104
 Virial quotient                       -1.01186030
 !RKS STATE 1.1 Dipole moment           0.34941450    -0.51735625    -0.00000000
 Dipole moment /Debye                   0.88806491    -1.31490230    -0.00000000

 Orbital energies:

         1.1          2.1          3.1          4.1          5.1          6.1          7.1          8.1          9.1         10.1
    -20.197630   -11.026889   -10.971728   -10.971698   -10.966438    -1.228185    -0.983952    -0.881883    -0.880897    -0.738945

        11.1         12.1         13.1         14.1         15.1         16.1         17.1         18.1         19.1         20.1
     -0.650969    -0.614231    -0.612289    -0.568868    -0.552044    -0.525043    -0.515066    -0.503757    -0.497753    -0.452095

        21.1         22.1         23.1
     -0.422285     0.102756     0.156732

 HOMO     21.1    -0.422285 =     -11.4910eV
 LUMO     22.1     0.102756 =       2.7961eV
 LUMO-HOMO         0.525041 =      14.2871eV


 **********************************************************************************************************************************
 DATASETS  * FILE   NREC   LENGTH (MB)   RECORD NAMES
              1      20      122.15       500      610      700      900      950      970     1000      129      960     1100   
                                          VAR    BASINP    GEOM    SYMINP    ZMAT    AOBASIS   BASIS     P2S    ABASIS      S 
                                         1400     1410     1200     1210     1080     1600     1650     1300     1700     1800   
                                           T        V       H0       H01     AOSYM     SMH    MOLCAS    ERIS     OPER     GRID   

              2       5        3.30       700     1000      520     1800     2100   
                                         GEOM     BASIS   MCVARS    GRID      RKS  

 PROGRAMS   *        TOTAL        KS       INT
 CPU TIMES  *        47.06     43.20      3.73
 REAL TIME  *        48.50 SEC
 DISK USED  *       426.89 MB      
 **********************************************************************************************************************************


 PROGRAM * Intrinsic Basis Bonding Analysis (IBBA)          Author: G. Knizia

 Molecular orbitals read from record     2100.2  Type=RKS/CANONICAL (state 1.1)
 Fock matrix read from record            2100.2  Type=RKS/TOTAL (state 1.1)
 Orbital energies read from record       2100.2  Type=RKS/CANONICAL (state 1.1)
 Density matrix read from record         2100.2  Type=RKS/CHARGE (state 1.1)

 Number of core orbitals:           5 (   5 )
 Number of closed-shell orbitals:  16 (  16 )

 Basis set MINAO-AUTO-PP generated.      Number of basis functions:   35 

 Polarized AO type:                A = (O Ot + (1-O)(1-Ot)) P12
 Orthogonalization method:         Symmetric (Loewdin)
 Localization functional:          L = sum[A,i] <i|n_A|i>^4 -> max

 Localization group 1:  21 orbitals, occupancy  2.000
 Iterative localization: IB/PM,    7 iter; Final gradient 0.21E-08

 Bond order analysis:       [THRPRINT= 0.020]

   CEN ATOM   CEN ATOM     WIBERG.BO      RENORM.BO
     1   C  -   2   C       0.992343       0.992252
     1   C  -   5   H       0.967618       0.988703
     1   C  -   7   H       0.961937       0.984851
     1   C  -   6   H       0.961937       0.984851

     2   C  -   8   C       0.992905       0.977801
     2   C  -   9   C       0.992905       0.977801
     2   C  -   1   C       0.992343       0.992252
     2   C  -   3   O       0.946147       0.961773

     3   O  -   2   C       0.946147       0.961773
     3   O  -   4   H       0.877715       0.980390
     3   O  -   9   C       0.022778       0.011871
     3   O  -   8   C       0.022778       0.011871

     4   H  -   3   O       0.877715       0.980390

     5   H  -   1   C       0.967618       0.988703

     6   H  -   1   C       0.961937       0.984851

     7   H  -   1   C       0.961937       0.984851

     8   C  -   2   C       0.992905       0.977801
     8   C  -  14   H       0.966809       0.984991
     8   C  -  12   H       0.964523       0.986955
     8   C  -  10   H       0.962433       0.984790
     8   C  -   3   O       0.022778       0.011871

     9   C  -   2   C       0.992905       0.977801
     9   C  -  15   H       0.966809       0.984991
     9   C  -  13   H       0.964523       0.986955
     9   C  -  11   H       0.962433       0.984790
     9   C  -   3   O       0.022778       0.011871

    10   H  -   8   C       0.962433       0.984790

    11   H  -   9   C       0.962433       0.984790

    12   H  -   8   C       0.964523       0.986955

    13   H  -   9   C       0.964523       0.986955

    14   H  -   8   C       0.966809       0.984991

    15   H  -   9   C       0.966809       0.984991


 Valency analysis:

   CEN ATOM   TOT.VALENCE
     1   C       3.936221
     2   C       3.936301
     3   O       1.922567
     4   H       0.893698
     5   H       0.985394
     6   H       0.981796
     7   H       0.981796
     8   C       3.939865
     9   C       3.939865
    10   H       0.981801
    11   H       0.981801
    12   H       0.983807
    13   H       0.983807
    14   H       0.986729
    15   H       0.986729

 Total charge composition:

   CEN ATOM         s          p       ELECTRONS ->P.CHARGE
     1   C       2.99415    3.37572      6.36988   -0.36988
     2   C       2.91052    2.88031      5.79082    0.20918
     3   O       3.59424    4.94592      8.54016   -0.54016
     4   H       0.67396                 0.67396    0.32604
     5   H       0.87915                 0.87915    0.12085
     6   H       0.86508                 0.86508    0.13492
     7   H       0.86508                 0.86508    0.13492
     8   C       2.99881    3.38648      6.38529   -0.38529
     9   C       2.99881    3.38648      6.38529   -0.38529
    10   H       0.86510                 0.86510    0.13490
    11   H       0.86510                 0.86510    0.13490
    12   H       0.87275                 0.87275    0.12725
    13   H       0.87275                 0.87275    0.12725
    14   H       0.88480                 0.88480    0.11520
    15   H       0.88480                 0.88480    0.11520

 Total charge composition, AO contributions:

   CEN ATOM SHL      SPHERICAL COMPONENTS
     1   C  1s       1.99037
     1   C  2s       1.00379
     1   C  2p       1.03478    1.16289    1.17806

     2   C  1s       1.99205
     2   C  2s       0.91846
     2   C  2p       1.03507    0.81497    1.03026

     3   O  1s       1.99691
     3   O  2s       1.59733
     3   O  2p       1.48157    1.49888    1.96547

     4   H  1s       0.67396

     5   H  1s       0.87915

     6   H  1s       0.86508

     7   H  1s       0.86508

     8   C  1s       1.99047
     8   C  2s       1.00834
     8   C  2p       1.14305    1.14668    1.09674

     9   C  1s       1.99047
     9   C  2s       1.00834
     9   C  2p       1.14305    1.14668    1.09674

    10   H  1s       0.86510

    11   H  1s       0.86510

    12   H  1s       0.87275

    13   H  1s       0.87275

    14   H  1s       0.88480

    15   H  1s       0.88480

 Summary of localized orbital composition:   [THRPRINT= 0.020]

   ORB  GRP  ORB.ENERGY      CENTERS/CHARGES
     1   1   -20.040153      O  3   2.000
     2   1   -10.929493      C  2   2.000
     3   1   -10.852226      C  9   2.000
     4   1   -10.852226      C  8   2.000
     5   1   -10.846026      C  1   2.000
     6   1    -0.950073      O  3   1.327   H  4   0.665
     7   1    -0.917308      O  3   1.259   C  2   0.727
     8   1    -0.730712      C  9   0.997   C  2   0.988
     9   1    -0.730712      C  8   0.997   C  2   0.988
    10   1    -0.728939      C  2   1.005   C  1   0.973   (other: 0.022)
    11   1    -0.726454      O  3   1.984
    12   1    -0.667537      C  9   1.124   H 13   0.865
    13   1    -0.667537      C  8   1.124   H 12   0.865
    14   1    -0.665890      C  8   1.111   H 14   0.878
    15   1    -0.665890      C  9   1.111   H 15   0.878
    16   1    -0.663531      C  8   1.134   H 10   0.857
    17   1    -0.663531      C  9   1.134   H 11   0.857
    18   1    -0.662723      C  1   1.116   H  5   0.872
    19   1    -0.658607      C  1   1.133   H  6   0.857
    20   1    -0.658607      C  1   1.133   H  7   0.857
    21   1    -0.484465      O  3   1.965   (other: 0.035)

 Localized orbitals saved to record      2100.2  (orbital set 2)


 **********************************************************************************************************************************
 DATASETS  * FILE   NREC   LENGTH (MB)   RECORD NAMES
              1      20      122.15       500      610      700      900      950      970     1000      129      960     1100   
                                          VAR    BASINP    GEOM    SYMINP    ZMAT    AOBASIS   BASIS     P2S    ABASIS      S 
                                         1400     1410     1200     1210     1080     1600     1650     1300     1700     1800   
                                           T        V       H0       H01     AOSYM     SMH    MOLCAS    ERIS     OPER     GRID   

              2       5        3.42       700     1000      520     1800     2100   
                                         GEOM     BASIS   MCVARS    GRID      RKS  

 PROGRAMS   *        TOTAL      IBBA        KS       INT
 CPU TIMES  *        47.10      0.04     43.20      3.73
 REAL TIME  *        48.63 SEC
 DISK USED  *       426.89 MB      
 **********************************************************************************************************************************
 Molecular orbitals read from record     2100.2  Type=RKS/LOCAL(IBO)  
 Occupation numbers read from record     2100.2  Type=RKS/LOCAL(IBO)  
 Orbital energies read from record       2100.2  Type=RKS/LOCAL(IBO)  
 Redundancy group numbers read from rec  2100.2  Type=RKS/LOCAL(IBO)  

 IBBA/SVP energy=      0.000000000000

        KS-SCF  
   -233.40283559
 **********************************************************************************************************************************
 Molpro calculation terminated
