
 Primary working directories    : /tmp/sb13343
 Secondary working directories  : /tmp/sb13343
 Wavefunction directory         : /panfs/panasas01/chem/sb13343/wfu/
 Main file repository           : /tmp/sb13343/

 SHA1      : b4a5b34a9e711420743f49e6833241d17c61fb3c
 NAME      : 2099.9.b4a5b34
 ARCHNAME  : linux/x86_64_openmp
 FC        : /cm/shared/languages/GCC-6.1/bin/gfortran
 BLASLIB   : -lblas
 id        : simonbennie

 Nodes     nprocs
 node32-008    1

 Using customized tuning parameters: mindgm=1; mindgv=20; mindgc=4; mindgr=1; noblas=0; minvec=7
 default implementation of scratch files=df  

 memory,500,m
 geomtyp=xyz
 nosym
 noorient
 geometry={
 C         -1.53233        0.02247        0.00000
 C         -0.00192        0.01421        0.00000
 O          0.37239        1.40356        0.00000
 H          1.34248        1.44036        0.00000
 H         -1.92991       -0.99819        0.00000
 H         -1.90797        0.54382       -0.88653
 H         -1.90797        0.54382        0.88653
 C          0.54303       -0.66466       -1.26580
 C          0.54303       -0.66466        1.26580
 H          0.17836       -0.14752       -2.15943
 H          0.17836       -0.14752        2.15943
 H          0.23752       -1.71600       -1.32280
 H          0.23752       -1.71600        1.32280
 H          1.64084       -0.63767       -1.28032
 H          1.64084       -0.63767        1.28032
 }
 basis={ default,svp }
 {ks,S-VWN,direct;wf,42,1,0}
 {ibba,bonds=1}

 Variables initialized (895), CPU time= 0.00 sec
 Commands  initialized (725), CPU time= 0.02 sec, 591 directives.
 Default parameters read. Elapsed time= 0.09 sec

 Checking input...
 Passed
1


                                         ***  PROGRAM SYSTEM MOLPRO  ***
                                       Copyright, TTI GmbH Stuttgart, 2015
                                    Version 2099.9 linked May 26 2017 16:03:21


 **********************************************************************************************************************************
 LABEL *                                                                                 
  64 bit serial version                                                                  DATE: 09-Jun-17          TIME: 03:10:43  
 **********************************************************************************************************************************

 SHA1:             b4a5b34a9e711420743f49e6833241d17c61fb3c
 **********************************************************************************************************************************
 SETTING GEOMTYP        =    XYZ

 Variable memory set to  500000000 words,  buffer space 

 ZSYMEL=NOSYM

 SETTING BASIS          =    SVP


 Recomputing integrals since basis changed


 Using spherical harmonics

 Library entry C      S def2-SVP             selected for orbital group  1
 Library entry C      P def2-SVP             selected for orbital group  1
 Library entry C      D def2-SVP             selected for orbital group  1
 Library entry O      S def2-SVP             selected for orbital group  2
 Library entry O      P def2-SVP             selected for orbital group  2
 Library entry O      D def2-SVP             selected for orbital group  2
 Library entry H      S def2-SVP             selected for orbital group  3
 Library entry H      P def2-SVP             selected for orbital group  3


 PROGRAM * SEWARD (Integral evaluation for generally contracted gaussian basis sets)     Author: Roland Lindh, 1990

 Geometry written to block  1 of record 700


 Point group  C1  



 ATOMIC COORDINATES

 NR  ATOM    CHARGE       X              Y              Z

   1  C       6.00   -2.895684032    0.042462146    0.000000000
   2  C       6.00   -0.003628274    0.026853008    0.000000000
   3  O       8.00    0.703715112    2.652343999    0.000000000
   4  H       1.00    2.536919528    2.721885921    0.000000000
   5  H       1.00   -3.647001345   -1.886305720    0.000000000
   6  H       1.00   -3.605540754    1.027670861   -1.675298901
   7  H       1.00   -3.605540754    1.027670861    1.675298901
   8  C       6.00    1.026177977   -1.256025366   -2.392015328
   9  C       6.00    1.026177977   -1.256025366    2.392015328
  10  H       1.00    0.337051552   -0.278772398   -4.080731285
  11  H       1.00    0.337051552   -0.278772398    4.080731285
  12  H       1.00    0.448847749   -3.242770030   -2.499729718
  13  H       1.00    0.448847749   -3.242770030    2.499729718
  14  H       1.00    3.100738214   -1.205021658   -2.419454152
  15  H       1.00    3.100738214   -1.205021658    2.419454152

 Bond lengths in Bohr (Angstrom)

 1-2  2.892097881  1-5  2.069933136  1-6  2.069096224  1-7  2.069096224  2-3  2.719106031
     ( 1.530432290)     ( 1.095361444)     ( 1.094918569)     ( 1.094918569)     ( 1.438888946)

  2- 8  2.903104402   2- 9  2.903104402   3- 4  1.834522965   8-10  2.069222119   8-12  2.071730422
       ( 1.536256691)       ( 1.536256691)       ( 0.970787746)       ( 1.094985190)       ( 1.096312526)

  8-14  2.075368508   9-11  2.069222119   9-13  2.071730422   9-15  2.075368508
       ( 1.098237719)       ( 1.094985190)       ( 1.096312526)       ( 1.098237719)

 Bond angles

  1-2-3  104.76902697   1-2-8  110.92255387   1-2-9  110.92255387   2-1-5  110.97328220

  2- 1- 6  110.22090701   2- 1- 7  110.22090701   2- 3- 4  107.25071562   2- 8-10  110.21836376

  2- 8-12  111.57747468   2- 8-14  110.77023896   2- 9-11  110.21836376   2- 9-13  111.57747468

  2- 9-15  110.77023896   3- 2- 8  109.53648747   3- 2- 9  109.53648747   5- 1- 6  108.61190457

  5- 1- 7  108.61190457   6- 1- 7  108.12870271   8- 2- 9  110.96453384  10- 8-12  108.52192632

 10- 8-14  108.08997829  11- 9-13  108.52192632  11- 9-15  108.08997829  12- 8-14  107.54424578

 13- 9-15  107.54424578

 NUCLEAR CHARGE:                   42
 NUMBER OF PRIMITIVE AOS:         195
 NUMBER OF SYMMETRY AOS:          190
 NUMBER OF CONTRACTIONS:          120   ( 120A   )
 NUMBER OF CORE ORBITALS:           5   (   5A   )
 NUMBER OF VALENCE ORBITALS:       30   (  30A   )


 NUCLEAR REPULSION ENERGY  198.77359127


 Eigenvalues of metric

         1 0.176E-02 0.546E-02 0.548E-02 0.123E-01 0.248E-01 0.256E-01 0.256E-01 0.275E-01


 Contracted 2-electron integrals neglected if value below      1.0D-11
 AO integral compression algorithm  1   Integral accuracy      1.0D-11

     101.974 MB (compressed) written to integral file ( 44.9%)


 NUMBER OF SORTED TWO-ELECTRON INTEGRALS:   26357430.     BUFFER LENGTH:  32768
 NUMBER OF SEGMENTS:   2  SEGMENT LENGTH:   15997996      RECORD LENGTH: 524288

 Memory used in sort:      16.56 MW

 SORT1 READ    28411733. AND WROTE    24096425. INTEGRALS IN     70 RECORDS. CPU TIME:     0.40 SEC, REAL TIME:     0.80 SEC
 SORT2 READ    24096425. AND WROTE    26357430. INTEGRALS IN    389 RECORDS. CPU TIME:     0.69 SEC, REAL TIME:     0.93 SEC

 FILE SIZES:   FILE 1:   132.7 MBYTE,  FILE 4:   293.6 MBYTE,   TOTAL:    426.4 MBYTE

 OPERATOR DM      FOR CENTER  0  COORDINATES:    0.000000    0.000000    0.000000


 **********************************************************************************************************************************
 DATASETS  * FILE   NREC   LENGTH (MB)   RECORD NAMES
              1      19      120.44       500      610      700      900      950      970     1000      129      960     1100   
                                          VAR    BASINP    GEOM    SYMINP    ZMAT    AOBASIS   BASIS     P2S    ABASIS      S 
                                         1400     1410     1200     1210     1080     1600     1650     1300     1700   
                                           T        V       H0       H01     AOSYM     SMH    MOLCAS    ERIS     OPER   

 PROGRAMS   *        TOTAL       INT
 CPU TIMES  *         4.61      4.45
 REAL TIME  *         8.00 SEC
 DISK USED  *       426.89 MB      
 **********************************************************************************************************************************

 Density functional group S-VWN=DIRAC+VWN5
 Functional: DIRAC(Automatically generated (new) DIRAC)                        Gradient terms: 0
 Functional: VWN5(Automatically generated (new) VWN5)                          Gradient terms: 0
 Use grid at  1800.2

 Functional: DIRAC                     Factor:  1.0000
 Functional: VWN5                      Factor:  1.0000

 Generated new metagrid on record  1800.2 with target accuracy 1.0D-06 and 53396 points in CPU time    1.7
 Computed new grid on record 1800.1 in CPU time    1.9
   53819 words reserved for DFT integration

 PROGRAM * RKS-SCF (Restricted closed shell Kohn-Sham)     Authors: W. Meyer, H.-J. Werner, P.J. Knowles, 1993

 NUMBER OF ELECTRONS:      21+   21-    SPACE SYMMETRY=1    SPIN SYMMETRY: Singlet 
 CONVERGENCE THRESHOLDS:    1.00E-05 (Density)    1.00E-06 (Energy)
 MAX. NUMBER OF ITERATIONS:       60
 INTERPOLATION TYPE:            DIIS
 INTERPOLATION STEPS:              2 (START)      1 (STEP)
 LEVEL SHIFTS:                  0.00 (CLOSED)  0.00 (OPEN) 



 Use fine grid record 1800.2 for energy threshold  1.0D-06
 Orbital guess generated from atomic densities. Full valence occupancy:   21

 Molecular orbital dump at record        2100.2

 Initial occupancy:  21

 ITERATION    DDIFF          GRAD             ENERGY        2-EL.EN.            DIPOLE MOMENTS         DIIS   ORB.
    1      0.000D+00      0.000D+00      -231.12626684    640.293928    0.72754   -0.82704    0.00000    0    start
    2      0.000D+00      0.122D-01      -230.63372212    591.313200   -0.38194    0.42800   -0.00000    1    diag
    3      0.348D-01      0.191D-01      -231.45053181    622.958698    0.44471   -0.58001    0.00000    2    diag
    4      0.259D-01      0.162D-02      -231.45377686    621.364709    0.36718   -0.35009    0.00000    3    diag
    5      0.233D-02      0.939D-03      -231.45532823    621.441448    0.37243   -0.45298    0.00000    4    diag
    6      0.889D-03      0.191D-03      -231.45537925    621.522038    0.37655   -0.43163    0.00000    5    diag
    7      0.219D-03      0.876D-04      -231.45539217    621.504230    0.37779   -0.43410    0.00000    6    diag
    8      0.655D-04      0.852D-05      -231.45539233    621.514539    0.37703   -0.43607    0.00000    7    diag
    9      0.114D-04      0.226D-05      -231.45539234    621.514648    0.37730   -0.43550    0.00000    8    diag
   10      0.287D-05      0.505D-06      -231.45539234    621.514573    0.37735   -0.43553    0.00000    0    orth

 Final occupancy:  21

 !RKS STATE 1.1 Energy               -231.455392342741
 Nuclear energy                       198.77359127
 One-electron energy                 -709.11423056
 Two-electron energy                  310.75728672
 Density functional                   -31.87203977     DIRAC=-29.22063736 VWN5= -2.65140241
 Virial quotient                       -1.00646030
 !RKS STATE 1.1 Dipole moment           0.37735414    -0.43552810     0.00000000
 Dipole moment /Debye                   0.95907573    -1.10692951     0.00000000

 Orbital energies:

         1.1          2.1          3.1          4.1          5.1          6.1          7.1          8.1          9.1         10.1
    -18.589733    -9.838085    -9.774099    -9.774055    -9.768334    -0.903870    -0.700020    -0.611975    -0.611137    -0.504665

        11.1         12.1         13.1         14.1         15.1         16.1         17.1         18.1         19.1         20.1
     -0.435532    -0.401357    -0.399981    -0.360738    -0.349159    -0.332029    -0.318226    -0.306998    -0.302015    -0.271403

        21.1         22.1         23.1
     -0.215967     0.012669     0.062041

 HOMO     21.1    -0.215967 =      -5.8768eV
 LUMO     22.1     0.012669 =       0.3447eV
 LUMO-HOMO         0.228636 =       6.2215eV


 **********************************************************************************************************************************
 DATASETS  * FILE   NREC   LENGTH (MB)   RECORD NAMES
              1      20      122.15       500      610      700      900      950      970     1000      129      960     1100   
                                          VAR    BASINP    GEOM    SYMINP    ZMAT    AOBASIS   BASIS     P2S    ABASIS      S 
                                         1400     1410     1200     1210     1080     1600     1650     1300     1700     1800   
                                           T        V       H0       H01     AOSYM     SMH    MOLCAS    ERIS     OPER     GRID   

              2       5        3.30       700     1000      520     1800     2100   
                                         GEOM     BASIS   MCVARS    GRID      RKS  

 PROGRAMS   *        TOTAL        KS       INT
 CPU TIMES  *        14.69     10.08      4.45
 REAL TIME  *        18.75 SEC
 DISK USED  *       426.89 MB      
 **********************************************************************************************************************************


 PROGRAM * Intrinsic Basis Bonding Analysis (IBBA)          Author: G. Knizia

 Molecular orbitals read from record     2100.2  Type=RKS/CANONICAL (state 1.1)
 Fock matrix read from record            2100.2  Type=RKS/TOTAL (state 1.1)
 Orbital energies read from record       2100.2  Type=RKS/CANONICAL (state 1.1)
 Density matrix read from record         2100.2  Type=RKS/CHARGE (state 1.1)

 Number of core orbitals:           5 (   5 )
 Number of closed-shell orbitals:  16 (  16 )

 Basis set MINAO-AUTO-PP generated.      Number of basis functions:   35 

 Polarized AO type:                A = (O Ot + (1-O)(1-Ot)) P12
 Orthogonalization method:         Symmetric (Loewdin)
 Localization functional:          L = sum[A,i] <i|n_A|i>^4 -> max

 Localization group 1:  21 orbitals, occupancy  2.000
 Iterative localization: IB/PM,    7 iter; Final gradient 0.34E-08

 Bond order analysis:       [THRPRINT= 0.020]

   CEN ATOM   CEN ATOM     WIBERG.BO      RENORM.BO
     1   C  -   2   C       0.993449       0.990082
     1   C  -   5   H       0.957777       0.985673
     1   C  -   6   H       0.952853       0.979876
     1   C  -   7   H       0.952853       0.979876

     2   C  -   1   C       0.993449       0.990082
     2   C  -   9   C       0.992556       0.970974
     2   C  -   8   C       0.992556       0.970974
     2   C  -   3   O       0.946573       0.944814

     3   O  -   2   C       0.946573       0.944814
     3   O  -   4   H       0.868493       0.973382
     3   O  -   8   C       0.031571       0.016276
     3   O  -   9   C       0.031571       0.016276

     4   H  -   3   O       0.868493       0.973382

     5   H  -   1   C       0.957777       0.985673

     6   H  -   1   C       0.952853       0.979876

     7   H  -   1   C       0.952853       0.979876

     8   C  -   2   C       0.992556       0.970974
     8   C  -  14   H       0.957187       0.980574
     8   C  -  10   H       0.953480       0.979631
     8   C  -  12   H       0.952927       0.979465
     8   C  -   3   O       0.031571       0.016276

     9   C  -   2   C       0.992556       0.970974
     9   C  -  15   H       0.957187       0.980574
     9   C  -  11   H       0.953480       0.979631
     9   C  -  13   H       0.952927       0.979465
     9   C  -   3   O       0.031571       0.016276

    10   H  -   8   C       0.953480       0.979631

    11   H  -   9   C       0.953480       0.979631

    12   H  -   8   C       0.952927       0.979465

    13   H  -   9   C       0.952927       0.979465

    14   H  -   8   C       0.957187       0.980574

    15   H  -   9   C       0.957187       0.980574


 Valency analysis:

   CEN ATOM   TOT.VALENCE
     1   C       3.924941
     2   C       3.939795
     3   O       1.954669
     4   H       0.889872
     5   H       0.979798
     6   H       0.977180
     7   H       0.977180
     8   C       3.927684
     9   C       3.927684
    10   H       0.977251
    11   H       0.977251
    12   H       0.978812
    13   H       0.978812
    14   H       0.981575
    15   H       0.981575

 Total charge composition:

   CEN ATOM         s          p       ELECTRONS ->P.CHARGE
     1   C       3.01772    3.42138      6.43909   -0.43909
     2   C       2.91035    2.85146      5.76181    0.23819
     3   O       3.62528    4.90736      8.53264   -0.53264
     4   H       0.66814                 0.66814    0.33186
     5   H       0.85787                 0.85787    0.14213
     6   H       0.84894                 0.84894    0.15106
     7   H       0.84894                 0.84894    0.15106
     8   C       3.02446    3.42895      6.45342   -0.45342
     9   C       3.02446    3.42895      6.45342   -0.45342
    10   H       0.84917                 0.84917    0.15083
    11   H       0.84917                 0.84917    0.15083
    12   H       0.85444                 0.85444    0.14556
    13   H       0.85444                 0.85444    0.14556
    14   H       0.86426                 0.86426    0.13574
    15   H       0.86426                 0.86426    0.13574

 Total charge composition, AO contributions:

   CEN ATOM SHL      SPHERICAL COMPONENTS
     1   C  1s       1.99207
     1   C  2s       1.02565
     1   C  2p       1.05531    1.17679    1.18927

     2   C  1s       1.99365
     2   C  2s       0.91670
     2   C  2p       1.01908    0.81264    1.01974

     3   O  1s       1.99738
     3   O  2s       1.62790
     3   O  2p       1.47251    1.48495    1.94990

     4   H  1s       0.66814

     5   H  1s       0.85787

     6   H  1s       0.84894

     7   H  1s       0.84894

     8   C  1s       1.99217
     8   C  2s       1.03230
     8   C  2p       1.15840    1.15997    1.11059

     9   C  1s       1.99217
     9   C  2s       1.03230
     9   C  2p       1.15840    1.15997    1.11059

    10   H  1s       0.84917

    11   H  1s       0.84917

    12   H  1s       0.85444

    13   H  1s       0.85444

    14   H  1s       0.86426

    15   H  1s       0.86426

 Summary of localized orbital composition:   [THRPRINT= 0.020]

   ORB  GRP  ORB.ENERGY      CENTERS/CHARGES
     1   1   -18.449912      O  3   2.000
     2   1    -9.751600      C  2   2.000
     3   1    -9.665910      C  8   2.000
     4   1    -9.665910      C  9   2.000
     5   1    -9.659406      C  1   2.000
     6   1    -0.686157      O  3   1.335   H  4   0.655
     7   1    -0.655122      O  3   1.264   C  2   0.717
     8   1    -0.516241      C  9   1.009   C  2   0.973
     9   1    -0.516241      C  8   1.009   C  2   0.973
    10   1    -0.515346      C  1   0.991   C  2   0.982   (other: 0.027)
    11   1    -0.463442      O  3   1.979   (other: 0.021)
    12   1    -0.446822      C  9   1.141   H 13   0.843
    13   1    -0.446822      C  8   1.141   H 12   0.843
    14   1    -0.446650      C  8   1.131   H 14   0.856
    15   1    -0.446650      C  9   1.131   H 15   0.856
    16   1    -0.442269      C  1   1.135   H  5   0.849
    17   1    -0.440880      C  9   1.149   H 11   0.839
    18   1    -0.440880      C  8   1.149   H 10   0.839
    19   1    -0.435657      C  1   1.148   H  6   0.839
    20   1    -0.435657      C  1   1.148   H  7   0.839
    21   1    -0.241803      O  3   1.950   (other: 0.050)

 Localized orbitals saved to record      2100.2  (orbital set 2)


 **********************************************************************************************************************************
 DATASETS  * FILE   NREC   LENGTH (MB)   RECORD NAMES
              1      20      122.15       500      610      700      900      950      970     1000      129      960     1100   
                                          VAR    BASINP    GEOM    SYMINP    ZMAT    AOBASIS   BASIS     P2S    ABASIS      S 
                                         1400     1410     1200     1210     1080     1600     1650     1300     1700     1800   
                                           T        V       H0       H01     AOSYM     SMH    MOLCAS    ERIS     OPER     GRID   

              2       5        3.42       700     1000      520     1800     2100   
                                         GEOM     BASIS   MCVARS    GRID      RKS  

 PROGRAMS   *        TOTAL      IBBA        KS       INT
 CPU TIMES  *        14.74      0.04     10.08      4.45
 REAL TIME  *        18.90 SEC
 DISK USED  *       426.89 MB      
 **********************************************************************************************************************************
 Molecular orbitals read from record     2100.2  Type=RKS/LOCAL(IBO)  
 Occupation numbers read from record     2100.2  Type=RKS/LOCAL(IBO)  
 Orbital energies read from record       2100.2  Type=RKS/LOCAL(IBO)  
 Redundancy group numbers read from rec  2100.2  Type=RKS/LOCAL(IBO)  

 IBBA/SVP energy=      0.000000000000

        KS-SCF  
   -231.45539234
 **********************************************************************************************************************************
 Molpro calculation terminated
