
 Primary working directories    : /tmp/sb13343
 Secondary working directories  : /tmp/sb13343
 Wavefunction directory         : /panfs/panasas01/chem/sb13343/wfu/
 Main file repository           : /tmp/sb13343/

 SHA1      : b4a5b34a9e711420743f49e6833241d17c61fb3c
 NAME      : 2099.9.b4a5b34
 ARCHNAME  : linux/x86_64_openmp
 FC        : /cm/shared/languages/GCC-6.1/bin/gfortran
 BLASLIB   : -lblas
 id        : simonbennie

 Nodes     nprocs
 node32-030    1

 Using customized tuning parameters: mindgm=1; mindgv=20; mindgc=4; mindgr=1; noblas=0; minvec=7
 default implementation of scratch files=df  

 memory,500,m
 geomtyp=xyz
 nosym
 noorient
 geometry={
 H         -1.13405        1.76167        0.00000
 C         -1.32915        0.67205        0.00000
 C         -0.06360       -0.12883        0.00000
 C          0.67426       -0.31636        1.28970
 C          0.67426       -0.31636       -1.28970
 H         -1.94006        0.46750        0.88859
 H         -1.94006        0.46750       -0.88859
 H          1.28359        0.56876        1.55544
 H         -0.01165       -0.48291        2.13019
 H          1.36783       -1.16569        1.24157
 H          1.28359        0.56876       -1.55544
 H         -0.01165       -0.48291       -2.13019
 H          1.36783       -1.16569       -1.24157
 }
 basis={ default,sto-3g }
 {ks,B3LYP3,direct;wf,33,1,1}
 {ibba,bonds=1}

 Variables initialized (895), CPU time= 0.00 sec
 Commands  initialized (725), CPU time= 0.02 sec, 591 directives.
 Default parameters read. Elapsed time= 0.08 sec

 Checking input...
 Passed
1


                                         ***  PROGRAM SYSTEM MOLPRO  ***
                                       Copyright, TTI GmbH Stuttgart, 2015
                                    Version 2099.9 linked May 26 2017 16:03:21


 **********************************************************************************************************************************
 LABEL *                                                                                 
  64 bit serial version                                                                  DATE: 08-Jun-17          TIME: 20:18:01  
 **********************************************************************************************************************************

 SHA1:             b4a5b34a9e711420743f49e6833241d17c61fb3c
 **********************************************************************************************************************************
 SETTING GEOMTYP        =    XYZ

 Variable memory set to  500000000 words,  buffer space 

 ZSYMEL=NOSYM

 SETTING BASIS          =    STO-3G


 Recomputing integrals since basis changed


 Using spherical harmonics

 Library entry H      S STO-3G               selected for orbital group  1
 Library entry C      S STO-3G               selected for orbital group  2
 Library entry C      P STO-3G               selected for orbital group  2


 PROGRAM * SEWARD (Integral evaluation for generally contracted gaussian basis sets)     Author: Roland Lindh, 1990

 Geometry written to block  1 of record 700


 Point group  C1  



 ATOMIC COORDINATES

 NR  ATOM    CHARGE       X              Y              Z

   1  H       1.00   -2.143043912    3.329073822    0.000000000
   2  C       6.00   -2.511729478    1.269990442    0.000000000
   3  C       6.00   -0.120186582   -0.243453417    0.000000000
   4  C       6.00    1.274166737   -0.597833757    2.437179783
   5  C       6.00    1.274166737   -0.597833757   -2.437179783
   6  H       1.00   -3.666182065    0.883446963    1.679191737
   7  H       1.00   -3.666182065    0.883446963   -1.679191737
   8  H       1.00    2.425633556    1.074800631    2.939355603
   9  H       1.00   -0.022015309   -0.912567643    4.025475693
  10  H       1.00    2.584824085   -2.202834846    2.346227264
  11  H       1.00    2.425633556    1.074800631   -2.939355603
  12  H       1.00   -0.022015309   -0.912567643   -4.025475693
  13  H       1.00    2.584824085   -2.202834846   -2.346227264

 Bond lengths in Bohr (Angstrom)

 1-2  2.091830159  2-3  2.830192527  2-6  2.074092940  2-7  2.074092940  3-4  2.830132841
     ( 1.106948849)     ( 1.497673388)     ( 1.097562717)     ( 1.097562717)     ( 1.497641803)

  3- 5  2.830132841   4- 8  2.091832255   4- 9  2.074085151   4-10  2.074156104   5-11  2.091832255
       ( 1.497641803)       ( 1.106949959)       ( 1.097558596)       ( 1.097596142)       ( 1.106949959)

  5-12  2.074085151   5-13  2.074156104
       ( 1.097558596)       ( 1.097596142)

 Bond angles

  1-2-3  112.17549786   1-2-6  106.35284965   1-2-7  106.35284965   2-3-4  118.89987932

  2-3-5  118.89987932   3-2-6  111.75744418   3-2-7  111.75744418   3-4-8  112.19808176

  3- 4- 9  111.75014522   3- 4-10  111.74379558   3- 5-11  112.19808176   3- 5-12  111.75014522

  3- 5-13  111.74379558   4- 3- 5  118.89276928   6- 2- 7  108.11431090   8- 4- 9  106.34995457

  8- 4-10  106.34572146   9- 4-10  108.12296896  11- 5-12  106.34995457  11- 5-13  106.34572146

 12- 5-13  108.12296896

 NUCLEAR CHARGE:                   33
 NUMBER OF PRIMITIVE AOS:          87
 NUMBER OF SYMMETRY AOS:           87
 NUMBER OF CONTRACTIONS:           29   (  29A   )
 NUMBER OF CORE ORBITALS:           4   (   4A   )
 NUMBER OF VALENCE ORBITALS:       25   (  25A   )


 NUCLEAR REPULSION ENERGY  124.92676597


 Eigenvalues of metric

         1 0.210E+00 0.225E+00 0.225E+00 0.315E+00 0.353E+00 0.353E+00 0.362E+00 0.372E+00


 Contracted 2-electron integrals neglected if value below      1.0D-11
 AO integral compression algorithm  1   Integral accuracy      1.0D-11

     0.786 MB (compressed) written to integral file (100.0%)


 NUMBER OF SORTED TWO-ELECTRON INTEGRALS:      94830.     BUFFER LENGTH:  32768
 NUMBER OF SEGMENTS:   1  SEGMENT LENGTH:      94830      RECORD LENGTH: 524288

 Memory used in sort:       0.65 MW

 SORT1 READ      108770. AND WROTE       91348. INTEGRALS IN      1 RECORDS. CPU TIME:     0.01 SEC, REAL TIME:     0.00 SEC
 SORT2 READ       91348. AND WROTE       94830. INTEGRALS IN      3 RECORDS. CPU TIME:     0.01 SEC, REAL TIME:     0.02 SEC

 FILE SIZES:   FILE 1:    31.0 MBYTE,  FILE 4:     4.2 MBYTE,   TOTAL:     35.2 MBYTE

 OPERATOR DM      FOR CENTER  0  COORDINATES:    0.000000    0.000000    0.000000


 **********************************************************************************************************************************
 DATASETS  * FILE   NREC   LENGTH (MB)   RECORD NAMES
              1      19       30.62       500      610      700      900      950      970     1000      129      960     1100   
                                          VAR    BASINP    GEOM    SYMINP    ZMAT    AOBASIS   BASIS     P2S    ABASIS      S 
                                         1400     1410     1200     1210     1080     1600     1650     1300     1700   
                                           T        V       H0       H01     AOSYM     SMH    MOLCAS    ERIS     OPER   

 PROGRAMS   *        TOTAL       INT
 CPU TIMES  *         0.63      0.49
 REAL TIME  *         0.98 SEC
 DISK USED  *        35.68 MB      
 **********************************************************************************************************************************

 Density functional group B3LYP3=B88+DIRAC+LYP+VWN3
 Functional: B88(Automatically generated (new) B88)                            Gradient terms: 1
 Functional: DIRAC(Automatically generated (new) DIRAC)                        Gradient terms: 0
 Functional: LYP(Automatically generated (new) LYP)                            Gradient terms: 1
 Functional: VWN3(Automatically generated (new) VWN3)                          Gradient terms: 0
 Use grid at  1800.2


 Exact exchange will be calculated, factor:  0.2000

 Functional: B88                       Factor:  0.7200
 Functional: DIRAC                     Factor:  0.0800
 Functional: LYP                       Factor:  0.8100
 Functional: VWN3                      Factor:  0.1900

 Generated new metagrid on record  1800.2 with target accuracy 1.0D-06 and 45406 points in CPU time    1.4
 Computed new grid on record 1800.1 in CPU time    1.5
   27459 words reserved for DFT integration

 PROGRAM * RKS-SCF (Restricted open shell Kohn-Sham)     Authors: W. Meyer, H.-J. Werner, P.J. Knowles, 1993

 NUMBER OF ELECTRONS:      17+   16-    SPACE SYMMETRY=1    SPIN SYMMETRY: Doublet 
 CONVERGENCE THRESHOLDS:    1.00E-05 (Density)    1.00E-06 (Energy)
 MAX. NUMBER OF ITERATIONS:       60
 INTERPOLATION TYPE:            DIIS
 INTERPOLATION STEPS:              2 (START)      1 (STEP)
 LEVEL SHIFTS:                 -0.60 (CLOSED) -0.30 (OPEN) 



 Use fine grid record 1800.2 for energy threshold  1.0D-06
 Orbital guess generated from atomic densities. Full valence occupancy:   17

 Molecular orbital dump at record        2100.2

 Initial alpha occupancy:  17
 Initial beta  occupancy:  16
 Wave function symmetry:    1

 ITERATION    DDIFF          GRAD             ENERGY        2-EL.EN.            DIPOLE MOMENTS         DIIS   ORB.
    1      0.000D+00      0.000D+00      -155.67531065    402.340841    0.19592    0.39620   -0.00000    0    start
    2      0.000D+00      0.264D-01      -155.90504959    391.060160    0.01424    0.02897   -0.00000    1    diag,B
    3      0.509D-01      0.242D-02      -155.90755302    391.630315    0.03701    0.07495   -0.00000    2    diag,B
    4      0.429D-02      0.615D-03      -155.90801806    391.619567    0.03814    0.07721   -0.00000    3    diag,B
    5      0.154D-02      0.190D-03      -155.90807445    391.613216    0.03782    0.07657   -0.00000    4    diag,B
    6      0.622D-03      0.368D-04      -155.90807639    391.613477    0.03741    0.07574   -0.00000    5    diag,B
    7      0.923D-04      0.120D-04      -155.90807655    391.613706    0.03733    0.07558   -0.00000    6    fixocc
    8      0.350D-04      0.179D-05      -155.90807655    391.613719    0.03736    0.07564   -0.00000    7    diag,B
    9      0.610D-05      0.247D-06      -155.90807655    391.613724    0.03736    0.07563   -0.00000    0    orth

 Final alpha occupancy:  17
 Final beta  occupancy:  16

 !RKS STATE 1.1 Energy               -155.908076549658
 Nuclear energy                       124.92676597
 One-electron energy                 -456.35000181
 Two-electron energy                  195.80686191
 Density functional                   -20.29170263     B88=-23.92655718 DIRAC=-21.51841371 LYP= -1.03211617 VWN3= -2.66891715
 Virial quotient                       -1.01611110
 !RKS STATE 1.1 Dipole moment           0.03735603     0.07563128    -0.00000000
 Dipole moment /Debye                   0.09494334     0.19222294    -0.00000000

 Orbital energies:

         1.1          2.1          3.1          4.1          5.1          6.1          7.1          8.1          9.1         10.1
    -10.001599   -10.001595   -10.001571    -9.973865    -0.747843    -0.650586    -0.650578    -0.486528    -0.398112    -0.398111

        11.1         12.1         13.1         14.1         15.1         16.1         17.1         18.1         19.1
     -0.392795    -0.346467    -0.346434    -0.330687    -0.294974    -0.294967    -0.109703     0.386868     0.386876

 HOMO     17.1    -0.109703 =      -2.9852eV
 LUMO     18.1     0.386868 =      10.5272eV
 LUMO-HOMO         0.496571 =      13.5124eV


 **********************************************************************************************************************************
 DATASETS  * FILE   NREC   LENGTH (MB)   RECORD NAMES
              1      20       32.07       500      610      700      900      950      970     1000      129      960     1100   
                                          VAR    BASINP    GEOM    SYMINP    ZMAT    AOBASIS   BASIS     P2S    ABASIS      S 
                                         1400     1410     1200     1210     1080     1600     1650     1300     1700     1800   
                                           T        V       H0       H01     AOSYM     SMH    MOLCAS    ERIS     OPER     GRID   

              2       5        2.99       700     1000      520     1800     2100   
                                         GEOM     BASIS   MCVARS    GRID      RKS  

 PROGRAMS   *        TOTAL        KS       INT
 CPU TIMES  *         4.91      4.28      0.49
 REAL TIME  *         5.55 SEC
 DISK USED  *        35.68 MB      
 **********************************************************************************************************************************


 PROGRAM * Intrinsic Basis Bonding Analysis (IBBA)          Author: G. Knizia

 Molecular orbitals read from record     2100.2  Type=RKS/CANONICAL (state 1.1)
 Fock matrix read from record            2100.2  Type=RKS/TOTAL (state 1.1)
 Orbital energies read from record       2100.2  Type=RKS/CANONICAL (state 1.1)
 Density matrix read from record         2100.2  Type=RKS/CHARGE (state 1.1)

 Number of core orbitals:           4 (   4 )
 Number of closed-shell orbitals:  12 (  12 )
 Number of active  orbitals:        1 (   1 )

 Basis set MINAO-AUTO-PP generated.      Number of basis functions:   29 

 Polarized AO type:                A = (O Ot + (1-O)(1-Ot)) P12
 Orthogonalization method:         Symmetric (Loewdin)
 Localization functional:          L = sum[A,i] <i|n_A|i>^4 -> max

 Localization group 1:  16 orbitals, occupancy  2.000
 Iterative localization: IB/PM,    7 iter; Final gradient 0.11E-08

 Bond order analysis:       [THRPRINT= 0.020]

   CEN ATOM   CEN ATOM     WIBERG.BO      RENORM.BO
     1   H  -   2   C       0.933525       0.998704
     1   H  -   3   C       0.029386       0.205381

     2   C  -   3   C       1.058806       1.320397
     2   C  -   7   H       0.959217       0.990248
     2   C  -   6   H       0.959217       0.990248
     2   C  -   1   H       0.933525       0.998704

     3   C  -   2   C       1.058806       1.320397
     3   C  -   5   C       1.058796       1.320349
     3   C  -   4   C       1.058796       1.320349
     3   C  -   1   H       0.029386       0.205381
     3   C  -  11   H       0.029366       0.205239
     3   C  -   8   H       0.029366       0.205239

     4   C  -   3   C       1.058796       1.320349
     4   C  -   9   H       0.959239       0.990240
     4   C  -  10   H       0.959181       0.990260
     4   C  -   8   H       0.933545       0.998701

     5   C  -   3   C       1.058796       1.320349
     5   C  -  12   H       0.959239       0.990240
     5   C  -  13   H       0.959181       0.990260
     5   C  -  11   H       0.933545       0.998701

     6   H  -   2   C       0.959217       0.990248

     7   H  -   2   C       0.959217       0.990248

     8   H  -   4   C       0.933545       0.998701
     8   H  -   3   C       0.029366       0.205239

     9   H  -   4   C       0.959239       0.990240

    10   H  -   4   C       0.959181       0.990260

    11   H  -   5   C       0.933545       0.998701
    11   H  -   3   C       0.029366       0.205239

    12   H  -   5   C       0.959239       0.990240

    13   H  -   5   C       0.959181       0.990260


 Valency analysis:

   CEN ATOM   TOT.VALENCE
     1   H       0.973432
     2   C       3.936995
     3   C       3.302944
     4   C       3.936993
     5   C       3.936993
     6   H       0.981007
     7   H       0.981007
     8   H       0.973433
     9   H       0.981015
    10   H       0.980998
    11   H       0.973433
    12   H       0.981015
    13   H       0.980998
 Localization group 2:   1 orbitals, occupancy  1.000
 Iterative localization: IB/PM,    1 iter; Final gradient 0.00E+00

 Bond order analysis:       [THRPRINT= 0.020]

   CEN ATOM   CEN ATOM     WIBERG.BO      RENORM.BO
     1   H  -   3   C       0.059781       0.500000


     3   C  -   1   H       0.059781       0.500000
     3   C  -  11   H       0.059778       0.500000
     3   C  -   8   H       0.059778       0.500000





     8   H  -   3   C       0.059778       0.500000



    11   H  -   3   C       0.059778       0.500000




 Valency analysis:

   CEN ATOM   TOT.VALENCE
     1   H       0.068300
     2   C       0.004777
     3   C       0.262947
     4   C       0.004766
     5   C       0.004766
     6   H       0.014009
     7   H       0.014009
     8   H       0.068297
     9   H       0.013958
    10   H       0.014078
    11   H       0.068297
    12   H       0.013958
    13   H       0.014078

 Total charge composition:

   CEN ATOM         s          p       ELECTRONS ->P.CHARGE
     1   H       0.87241                 0.87241    0.12759
     2   C       2.99187    3.40630      6.39817   -0.39817
     3   C       2.97336    2.99947      5.97283    0.02717
     4   C       2.99186    3.40630      6.39817   -0.39817
     5   C       2.99186    3.40630      6.39817   -0.39817
     6   H       0.86924                 0.86924    0.13076
     7   H       0.86924                 0.86924    0.13076
     8   H       0.87241                 0.87241    0.12759
     9   H       0.86924                 0.86924    0.13076
    10   H       0.86924                 0.86924    0.13076
    11   H       0.87241                 0.87241    0.12759
    12   H       0.86924                 0.86924    0.13076
    13   H       0.86924                 0.86924    0.13076

 Total charge composition, AO contributions:

   CEN ATOM SHL      SPHERICAL COMPONENTS
     1   H  1s       0.87241

     2   C  1s       1.99170
     2   C  2s       1.00018
     2   C  2p       1.10329    1.13561    1.16739

     3   C  1s       1.99317
     3   C  2s       0.98020
     3   C  2p       0.99996    0.99936    1.00015

     4   C  1s       1.99170
     4   C  2s       1.00017
     4   C  2p       1.14415    1.16051    1.10164

     5   C  1s       1.99170
     5   C  2s       1.00017
     5   C  2p       1.14415    1.16051    1.10164

     6   H  1s       0.86924

     7   H  1s       0.86924

     8   H  1s       0.87241

     9   H  1s       0.86924

    10   H  1s       0.86924

    11   H  1s       0.87241

    12   H  1s       0.86924

    13   H  1s       0.86924

 Active orbital charges:

   CEN ATOM         s          p       ELECTRONS ->SPIN.DEN
     1   H       0.03540                 0.03540    0.03540
     2   C       0.00013    0.00226      0.00239    0.00239
     3   C       0.01675    0.82752      0.84428    0.84428
     4   C       0.00013    0.00226      0.00239    0.00239
     5   C       0.00013    0.00226      0.00239    0.00239
     6   H       0.00705                 0.00705    0.00705
     7   H       0.00705                 0.00705    0.00705
     8   H       0.03540                 0.03540    0.03540
     9   H       0.00703                 0.00703    0.00703
    10   H       0.00709                 0.00709    0.00709
    11   H       0.03540                 0.03540    0.03540
    12   H       0.00703                 0.00703    0.00703
    13   H       0.00709                 0.00709    0.00709

 Active orbital charges, AO contributions:

   CEN ATOM SHL      SPHERICAL COMPONENTS
     1   H  1s       0.03540

     2   C  1s       0.00000
     2   C  2s       0.00013
     2   C  2p       0.00000    0.00226    0.00000

     3   C  1s       0.00001
     3   C  2s       0.01674
     3   C  2p       0.16195    0.66558    0.00000

     4   C  1s       0.00000
     4   C  2s       0.00013
     4   C  2p       0.00082    0.00107    0.00038

     5   C  1s       0.00000
     5   C  2s       0.00013
     5   C  2p       0.00082    0.00107    0.00038

     6   H  1s       0.00705

     7   H  1s       0.00705

     8   H  1s       0.03540

     9   H  1s       0.00703

    10   H  1s       0.00709

    11   H  1s       0.03540

    12   H  1s       0.00703

    13   H  1s       0.00709

 Summary of localized orbital composition:   [THRPRINT= 0.020]

   ORB  GRP  ORB.ENERGY      CENTERS/CHARGES
     1   1    -9.888240      C  2   2.000
     2   1    -9.888235      C  5   2.000
     3   1    -9.888235      C  4   2.000
     4   1    -9.877375      C  3   2.000
     5   1    -0.539393      C  4   1.009   C  3   0.979
     6   1    -0.539393      C  5   1.009   C  3   0.979
     7   1    -0.539371      C  2   1.009   C  3   0.979
     8   1    -0.462864      C  2   1.123   H  1   0.833   C  3   0.041
     9   1    -0.462862      C  4   1.123   H  8   0.833   C  3   0.041
    10   1    -0.462862      C  5   1.123   H 11   0.833   C  3   0.041
    11   1    -0.461323      C  2   1.128   H  7   0.856
    12   1    -0.461323      C  2   1.128   H  6   0.856
    13   1    -0.461320      C  5   1.128   H 12   0.856
    14   1    -0.461320      C  4   1.128   H  9   0.856
    15   1    -0.461298      C  4   1.128   H 10   0.856
    16   1    -0.461298      C  5   1.128   H 13   0.856
    17   2    -0.016296      C  3   0.844   H  1   0.035   H 11   0.035   H  8   0.035   (other: 0.050)

 Localized orbitals saved to record      2100.2  (orbital set 2)


 **********************************************************************************************************************************
 DATASETS  * FILE   NREC   LENGTH (MB)   RECORD NAMES
              1      20       32.07       500      610      700      900      950      970     1000      129      960     1100   
                                          VAR    BASINP    GEOM    SYMINP    ZMAT    AOBASIS   BASIS     P2S    ABASIS      S 
                                         1400     1410     1200     1210     1080     1600     1650     1300     1700     1800   
                                           T        V       H0       H01     AOSYM     SMH    MOLCAS    ERIS     OPER     GRID   

              2       5        3.00       700     1000      520     1800     2100   
                                         GEOM     BASIS   MCVARS    GRID      RKS  

 PROGRAMS   *        TOTAL      IBBA        KS       INT
 CPU TIMES  *         4.93      0.02      4.28      0.49
 REAL TIME  *         5.67 SEC
 DISK USED  *        35.68 MB      
 **********************************************************************************************************************************
 Molecular orbitals read from record     2100.2  Type=RKS/LOCAL(IBO)  
 Occupation numbers read from record     2100.2  Type=RKS/LOCAL(IBO)  
 Orbital energies read from record       2100.2  Type=RKS/LOCAL(IBO)  
 Redundancy group numbers read from rec  2100.2  Type=RKS/LOCAL(IBO)  

 IBBA/STO-3G energy=      0.000000000000

        KS-SCF  
   -155.90807655
 **********************************************************************************************************************************
 Molpro calculation terminated
