
 Primary working directories    : /tmp/sb13343
 Secondary working directories  : /tmp/sb13343
 Wavefunction directory         : /panfs/panasas01/chem/sb13343/wfu/
 Main file repository           : /tmp/sb13343/

 SHA1      : b4a5b34a9e711420743f49e6833241d17c61fb3c
 NAME      : 2099.9.b4a5b34
 ARCHNAME  : linux/x86_64_openmp
 FC        : /cm/shared/languages/GCC-6.1/bin/gfortran
 BLASLIB   : -lblas
 id        : simonbennie

 Nodes     nprocs
 node32-030    1

 Using customized tuning parameters: mindgm=1; mindgv=20; mindgc=4; mindgr=1; noblas=0; minvec=7
 default implementation of scratch files=df  

 memory,500,m
 geomtyp=xyz
 nosym
 noorient
 geometry={
 H         -1.13405        1.76167        0.00000
 C         -1.32915        0.67205        0.00000
 C         -0.06360       -0.12883        0.00000
 C          0.67426       -0.31636        1.28970
 C          0.67426       -0.31636       -1.28970
 H         -1.94006        0.46750        0.88859
 H         -1.94006        0.46750       -0.88859
 H          1.28359        0.56876        1.55544
 H         -0.01165       -0.48291        2.13019
 H          1.36783       -1.16569        1.24157
 H          1.28359        0.56876       -1.55544
 H         -0.01165       -0.48291       -2.13019
 H          1.36783       -1.16569       -1.24157
 }
 basis={ default,sto-3g }
 {uks,SOGGA11-X,direct;wf,33,1,1}
 {ibba,bonds=1}

 Variables initialized (895), CPU time= 0.00 sec
 Commands  initialized (725), CPU time= 0.01 sec, 591 directives.
 Default parameters read. Elapsed time= 0.09 sec

 Checking input...
 Passed
1


                                         ***  PROGRAM SYSTEM MOLPRO  ***
                                       Copyright, TTI GmbH Stuttgart, 2015
                                    Version 2099.9 linked May 26 2017 16:03:21


 **********************************************************************************************************************************
 LABEL *                                                                                 
  64 bit serial version                                                                  DATE: 08-Jun-17          TIME: 20:32:25  
 **********************************************************************************************************************************

 SHA1:             b4a5b34a9e711420743f49e6833241d17c61fb3c
 **********************************************************************************************************************************
 SETTING GEOMTYP        =    XYZ

 Variable memory set to  500000000 words,  buffer space 

 ZSYMEL=NOSYM

 SETTING BASIS          =    STO-3G


 Recomputing integrals since basis changed


 Using spherical harmonics

 Library entry H      S STO-3G               selected for orbital group  1
 Library entry C      S STO-3G               selected for orbital group  2
 Library entry C      P STO-3G               selected for orbital group  2


 PROGRAM * SEWARD (Integral evaluation for generally contracted gaussian basis sets)     Author: Roland Lindh, 1990

 Geometry written to block  1 of record 700


 Point group  C1  



 ATOMIC COORDINATES

 NR  ATOM    CHARGE       X              Y              Z

   1  H       1.00   -2.143043912    3.329073822    0.000000000
   2  C       6.00   -2.511729478    1.269990442    0.000000000
   3  C       6.00   -0.120186582   -0.243453417    0.000000000
   4  C       6.00    1.274166737   -0.597833757    2.437179783
   5  C       6.00    1.274166737   -0.597833757   -2.437179783
   6  H       1.00   -3.666182065    0.883446963    1.679191737
   7  H       1.00   -3.666182065    0.883446963   -1.679191737
   8  H       1.00    2.425633556    1.074800631    2.939355603
   9  H       1.00   -0.022015309   -0.912567643    4.025475693
  10  H       1.00    2.584824085   -2.202834846    2.346227264
  11  H       1.00    2.425633556    1.074800631   -2.939355603
  12  H       1.00   -0.022015309   -0.912567643   -4.025475693
  13  H       1.00    2.584824085   -2.202834846   -2.346227264

 Bond lengths in Bohr (Angstrom)

 1-2  2.091830159  2-3  2.830192527  2-6  2.074092940  2-7  2.074092940  3-4  2.830132841
     ( 1.106948849)     ( 1.497673388)     ( 1.097562717)     ( 1.097562717)     ( 1.497641803)

  3- 5  2.830132841   4- 8  2.091832255   4- 9  2.074085151   4-10  2.074156104   5-11  2.091832255
       ( 1.497641803)       ( 1.106949959)       ( 1.097558596)       ( 1.097596142)       ( 1.106949959)

  5-12  2.074085151   5-13  2.074156104
       ( 1.097558596)       ( 1.097596142)

 Bond angles

  1-2-3  112.17549786   1-2-6  106.35284965   1-2-7  106.35284965   2-3-4  118.89987932

  2-3-5  118.89987932   3-2-6  111.75744418   3-2-7  111.75744418   3-4-8  112.19808176

  3- 4- 9  111.75014522   3- 4-10  111.74379558   3- 5-11  112.19808176   3- 5-12  111.75014522

  3- 5-13  111.74379558   4- 3- 5  118.89276928   6- 2- 7  108.11431090   8- 4- 9  106.34995457

  8- 4-10  106.34572146   9- 4-10  108.12296896  11- 5-12  106.34995457  11- 5-13  106.34572146

 12- 5-13  108.12296896

 NUCLEAR CHARGE:                   33
 NUMBER OF PRIMITIVE AOS:          87
 NUMBER OF SYMMETRY AOS:           87
 NUMBER OF CONTRACTIONS:           29   (  29A   )
 NUMBER OF CORE ORBITALS:           4   (   4A   )
 NUMBER OF VALENCE ORBITALS:       25   (  25A   )


 NUCLEAR REPULSION ENERGY  124.92676597


 Eigenvalues of metric

         1 0.210E+00 0.225E+00 0.225E+00 0.315E+00 0.353E+00 0.353E+00 0.362E+00 0.372E+00


 Contracted 2-electron integrals neglected if value below      1.0D-11
 AO integral compression algorithm  1   Integral accuracy      1.0D-11

     0.786 MB (compressed) written to integral file (100.0%)


 NUMBER OF SORTED TWO-ELECTRON INTEGRALS:      94830.     BUFFER LENGTH:  32768
 NUMBER OF SEGMENTS:   1  SEGMENT LENGTH:      94830      RECORD LENGTH: 524288

 Memory used in sort:       0.65 MW

 SORT1 READ      108770. AND WROTE       91348. INTEGRALS IN      1 RECORDS. CPU TIME:     0.00 SEC, REAL TIME:     0.01 SEC
 SORT2 READ       91348. AND WROTE       94830. INTEGRALS IN      3 RECORDS. CPU TIME:     0.01 SEC, REAL TIME:     0.01 SEC

 FILE SIZES:   FILE 1:    31.0 MBYTE,  FILE 4:     4.2 MBYTE,   TOTAL:     35.2 MBYTE

 OPERATOR DM      FOR CENTER  0  COORDINATES:    0.000000    0.000000    0.000000


 **********************************************************************************************************************************
 DATASETS  * FILE   NREC   LENGTH (MB)   RECORD NAMES
              1      19       30.62       500      610      700      900      950      970     1000      129      960     1100   
                                          VAR    BASINP    GEOM    SYMINP    ZMAT    AOBASIS   BASIS     P2S    ABASIS      S 
                                         1400     1410     1200     1210     1080     1600     1650     1300     1700   
                                           T        V       H0       H01     AOSYM     SMH    MOLCAS    ERIS     OPER   

 PROGRAMS   *        TOTAL       INT
 CPU TIMES  *         0.65      0.51
 REAL TIME  *         0.95 SEC
 DISK USED  *        35.68 MB      
 **********************************************************************************************************************************

 Density functional group SOGGA11-X=XC-SOGGA11-X
 Functional: XC-SOGGA11-X(via MFM 1.6)                                         Gradient terms: 1
 Use grid at  1800.2


 Exact exchange will be calculated, factor:  0.4015

 Functional: XC-SOGGA11-X              Factor:  1.0000

 Generated new metagrid on record  1800.2 with target accuracy 1.0D-06 and 45406 points in CPU time    1.4
 Computed new grid on record 1800.1 in CPU time    1.5
   27459 words reserved for DFT integration

 PROGRAM * UKS-SCF (Unrestricted Kohn-Sham)     Authors: W. Meyer, H.-J. Werner, P.J. Knowles, 1993

 NUMBER OF ELECTRONS:      17+   16-    SPACE SYMMETRY=1    SPIN SYMMETRY: Doublet 
 CONVERGENCE THRESHOLDS:    1.00E-05 (Density)    1.00E-06 (Energy)
 MAX. NUMBER OF ITERATIONS:       60
 INTERPOLATION TYPE:            DIIS
 INTERPOLATION STEPS:              2 (START)      1 (STEP)
 LEVEL SHIFTS:                 -0.20 (ALPHA)  -0.20 (BETA) 



 Use fine grid record 1800.2 for energy threshold  1.0D-06
 Orbital guess generated from atomic densities. Full valence occupancy:   17

 Molecular orbital dump at record        2200.2

 Initial alpha occupation  17
 Initial beta  occupation  16

 ITERATION    DDIFF          GRAD             ENERGY        2-EL.EN.            DIPOLE MOMENTS         DIIS
    1      0.000D+00      0.000D+00      -155.71648639    391.433127    0.18344    0.37104   -0.00000    0
    2      0.445D-01      0.178D-01      -155.90726911    381.721891    0.05067    0.10256   -0.00000    1
    3      0.274D-02      0.216D-02      -155.91034114    381.915270    0.04408    0.08922   -0.00000    2
    4      0.217D-02      0.111D-02      -155.91169434    381.886347    0.03886    0.07862   -0.00000    3
    5      0.669D-03      0.338D-03      -155.91182303    381.882859    0.03748    0.07582   -0.00000    4
    6      0.187D-03      0.706D-04      -155.91182993    381.879902    0.03736    0.07557   -0.00000    5
    7      0.266D-04      0.151D-04      -155.91183019    381.880904    0.03732    0.07548   -0.00000    6
    8      0.708D-05      0.457D-05      -155.91183022    381.880975    0.03733    0.07549   -0.00000    6
    9      0.149D-05      0.805D-06      -155.91183022    381.880795    0.03732    0.07548   -0.00000    6

 Final alpha occupancy:  17
 Final beta  occupancy:  16

 !UKS STATE 1.1 Energy               -155.911830223110
 Nuclear energy                       124.92676597
 One-electron energy                 -456.31659256
 Two-electron energy                  190.94039773
 Density functional                   -15.46240137     XC-SOGGA11-X=-15.46240137
 Virial quotient                       -1.01525160
 !UKS STATE 1.1 Dipole moment           0.03732321     0.07548407    -0.00000000
 Dipole moment /Debye                   0.09485991     0.19184881    -0.00000000

 Orbital energies for positive spin:

         1.1          2.1          3.1          4.1          5.1          6.1          7.1          8.1          9.1         10.1
    -10.253902   -10.253895   -10.253860   -10.233720    -0.843704    -0.726325    -0.726325    -0.560485    -0.458919    -0.451374

        11.1         12.1         13.1         14.1         15.1         16.1         17.1         18.1         19.1
     -0.451371    -0.396617    -0.396585    -0.377571    -0.341609    -0.341590    -0.145177     0.444069     0.444075

 Orbital energies for negative spin:

         1.1          2.1          3.1          4.1          5.1          6.1          7.1          8.1          9.1         10.1
    -10.255251   -10.255243   -10.255200   -10.213147    -0.820510    -0.723989    -0.723988    -0.534085    -0.446707    -0.446696

        11.1         12.1         13.1         14.1         15.1         16.1         17.1         18.1         19.1
     -0.433630    -0.389913    -0.389883    -0.376421    -0.334893    -0.334883     0.110449     0.447901     0.447923

 HOMO     17.1    -0.145177 =      -3.9505eV
 LUMO    -17.1     0.110449 =       3.0055eV
 LUMO-HOMO         0.255626 =       6.9559eV

 EXPECTATION VALUE OF S**2:             0.75375961

 Occupation number threshold for canonical orbitals:  1.999000 (occupied),  0.001000 (virtual)

 Number of pseudo-canonical orbitals per symmetry:   16
 Number of active natural orbitals per symmetry:      1

 Natural orbitals saved to record    2200.2 (Orbital set 3)

 Orbital spaces for UNO-CAS (Min. occupation: 0.020  Max. occupation: 1.980):

 Closed:       16
 Active:        1


 **********************************************************************************************************************************
 DATASETS  * FILE   NREC   LENGTH (MB)   RECORD NAMES
              1      20       32.07       500      610      700      900      950      970     1000      129      960     1100   
                                          VAR    BASINP    GEOM    SYMINP    ZMAT    AOBASIS   BASIS     P2S    ABASIS      S 
                                         1400     1410     1200     1210     1080     1600     1650     1300     1700     1800   
                                           T        V       H0       H01     AOSYM     SMH    MOLCAS    ERIS     OPER     GRID   

              2       5        3.00       700     1000      520     1800     2200   
                                         GEOM     BASIS   MCVARS    GRID      UKS  

 PROGRAMS   *        TOTAL       UKS       INT
 CPU TIMES  *         5.76      5.11      0.51
 REAL TIME  *         6.37 SEC
 DISK USED  *        35.68 MB      
 **********************************************************************************************************************************


 PROGRAM * Intrinsic Basis Bonding Analysis (IBBA)          Author: G. Knizia

 Molecular orbitals read from record     2200.2  Type=UKS/ALPHA (state 1.1)
 Fock matrix read from record            2200.2  Type=UKS/TOTAL (state 1.1)
 Orbital energies read from record       2200.2  Type=UKS/ALPHA (state 1.1)
 Density matrix read from record         2200.2  Type=UKS/CHARGE (state 1.1)

 Number of core orbitals:           4 (   4 )
 Number of closed-shell orbitals:  12 (  12 )
 Number of active  orbitals:        1 (   1 )

 Basis set MINAO-AUTO-PP generated.      Number of basis functions:   29 

 Polarized AO type:                A = (O Ot + (1-O)(1-Ot)) P12
 Orthogonalization method:         Symmetric (Loewdin)
 Localization functional:          L = sum[A,i] <i|n_A|i>^4 -> max

 Localization group 1:  16 orbitals, occupancy  2.000
 Iterative localization: IB/PM,    8 iter; Final gradient 0.11E-08

 Bond order analysis:       [THRPRINT= 0.020]

   CEN ATOM   CEN ATOM     WIBERG.BO      RENORM.BO
     1   H  -   2   C       0.887608       0.996252
     1   H  -   3   C       0.052159       0.176576

     2   C  -   3   C       1.122956       1.308201
     2   C  -   7   H       0.952855       0.990084
     2   C  -   6   H       0.952855       0.990084
     2   C  -   1   H       0.887608       0.996252

     3   C  -   2   C       1.122956       1.308201
     3   C  -   5   C       1.122936       1.308152
     3   C  -   4   C       1.122936       1.308152
     3   C  -   1   H       0.052159       0.176576
     3   C  -  11   H       0.052128       0.176472
     3   C  -   8   H       0.052128       0.176472

     4   C  -   3   C       1.122936       1.308152
     4   C  -   9   H       0.952913       0.990079
     4   C  -  10   H       0.952781       0.990093
     4   C  -   8   H       0.887642       0.996247

     5   C  -   3   C       1.122936       1.308152
     5   C  -  12   H       0.952913       0.990079
     5   C  -  13   H       0.952781       0.990093
     5   C  -  11   H       0.887642       0.996247

     6   H  -   2   C       0.952855       0.990084

     7   H  -   2   C       0.952855       0.990084

     8   H  -   4   C       0.887642       0.996247
     8   H  -   3   C       0.052128       0.176472

     9   H  -   4   C       0.952913       0.990079

    10   H  -   4   C       0.952781       0.990093

    11   H  -   5   C       0.887642       0.996247
    11   H  -   3   C       0.052128       0.176472

    12   H  -   5   C       0.952913       0.990079

    13   H  -   5   C       0.952781       0.990093


 Valency analysis:

   CEN ATOM   TOT.VALENCE
     1   H       0.967437
     2   C       3.951064
     3   C       3.585920
     4   C       3.951058
     5   C       3.951058
     6   H       0.981033
     7   H       0.981033
     8   H       0.967439
     9   H       0.981044
    10   H       0.981022
    11   H       0.967439
    12   H       0.981044
    13   H       0.981022
 Localization group 2:   1 orbitals, occupancy  1.000
 Iterative localization: IB/PM,    1 iter; Final gradient 0.00E+00

 Bond order analysis:       [THRPRINT= 0.020]

   CEN ATOM   CEN ATOM     WIBERG.BO      RENORM.BO
     1   H  -   3   C       0.077070       0.500000


     3   C  -   1   H       0.077070       0.500000
     3   C  -  11   H       0.077063       0.500000
     3   C  -   8   H       0.077063       0.500000





     8   H  -   3   C       0.077063       0.500000



    11   H  -   3   C       0.077063       0.500000




 Valency analysis:

   CEN ATOM   TOT.VALENCE
     1   H       0.097412
     2   C       0.023680
     3   C       0.374439
     4   C       0.023662
     5   C       0.023662
     6   H       0.019627
     7   H       0.019627
     8   H       0.097403
     9   H       0.019552
    10   H       0.019722
    11   H       0.097403
    12   H       0.019552
    13   H       0.019722

 Total charge composition:

   CEN ATOM         s          p       ELECTRONS ->P.CHARGE
     1   H       0.87089                 0.87089    0.12911
     2   C       2.98699    3.34308      6.33007   -0.33007
     3   C       3.02520    3.13883      6.16403   -0.16403
     4   C       2.98697    3.34306      6.33003   -0.33003
     5   C       2.98697    3.34306      6.33003   -0.33003
     6   H       0.87219                 0.87219    0.12781
     7   H       0.87219                 0.87219    0.12781
     8   H       0.87089                 0.87089    0.12911
     9   H       0.87219                 0.87219    0.12781
    10   H       0.87220                 0.87220    0.12780
    11   H       0.87089                 0.87089    0.12911
    12   H       0.87219                 0.87219    0.12781
    13   H       0.87220                 0.87220    0.12780

 Total charge composition, AO contributions:

   CEN ATOM SHL      SPHERICAL COMPONENTS
     1   H  1s       0.87089

     2   C  1s       1.99125
     2   C  2s       0.99574
     2   C  2p       1.08046    1.10265    1.15998

     3   C  1s       1.99261
     3   C  2s       1.03259
     3   C  2p       1.03568    1.08229    1.02086

     4   C  1s       1.99125
     4   C  2s       0.99572
     4   C  2p       1.12615    1.13786    1.07905

     5   C  1s       1.99125
     5   C  2s       0.99572
     5   C  2p       1.12615    1.13786    1.07905

     6   H  1s       0.87219

     7   H  1s       0.87219

     8   H  1s       0.87089

     9   H  1s       0.87219

    10   H  1s       0.87220

    11   H  1s       0.87089

    12   H  1s       0.87219

    13   H  1s       0.87220

 Active orbital charges:

   CEN ATOM         s          p       ELECTRONS ->SPIN.DEN
     1   H       0.05134                 0.05134    0.05134
     2   C       0.00020    0.01179      0.01198    0.01198
     3   C       0.01070    0.73986      0.75056    0.75056
     4   C       0.00020    0.01178      0.01197    0.01197
     5   C       0.00020    0.01178      0.01197    0.01197
     6   H       0.00991                 0.00991    0.00991
     7   H       0.00991                 0.00991    0.00991
     8   H       0.05134                 0.05134    0.05134
     9   H       0.00987                 0.00987    0.00987
    10   H       0.00996                 0.00996    0.00996
    11   H       0.05134                 0.05134    0.05134
    12   H       0.00987                 0.00987    0.00987
    13   H       0.00996                 0.00996    0.00996

 Active orbital charges, AO contributions:

   CEN ATOM SHL      SPHERICAL COMPONENTS
     1   H  1s       0.05134

     2   C  1s       0.00000
     2   C  2s       0.00020
     2   C  2p       0.00036    0.01143    0.00000

     3   C  1s       0.00003
     3   C  2s       0.01067
     3   C  2p       0.14480    0.59507    0.00000

     4   C  1s       0.00000
     4   C  2s       0.00020
     4   C  2p       0.00356    0.00752    0.00069

     5   C  1s       0.00000
     5   C  2s       0.00020
     5   C  2p       0.00356    0.00752    0.00069

     6   H  1s       0.00991

     7   H  1s       0.00991

     8   H  1s       0.05134

     9   H  1s       0.00987

    10   H  1s       0.00996

    11   H  1s       0.05134

    12   H  1s       0.00987

    13   H  1s       0.00996

 Summary of localized orbital composition:   [THRPRINT= 0.020]

   ORB  GRP  ORB.ENERGY      CENTERS/CHARGES
     1   1   -10.138659      C  4   2.000
     2   1   -10.138659      C  5   2.000
     3   1   -10.138646      C  2   2.000
     4   1   -10.119844      C  3   2.000
     5   1    -0.602034      C  3   1.011   C  5   0.978
     6   1    -0.602034      C  3   1.011   C  4   0.978
     7   1    -0.601995      C  3   1.011   C  2   0.978
     8   1    -0.519759      C  5   1.092   H 11   0.812   C  3   0.089
     9   1    -0.519759      C  4   1.092   H  8   0.812   C  3   0.089
    10   1    -0.519748      C  2   1.092   H  1   0.812   C  3   0.089
    11   1    -0.515232      C  4   1.120   H  9   0.856   (other: 0.024)
    12   1    -0.515232      C  5   1.120   H 12   0.856   (other: 0.024)
    13   1    -0.515224      C  2   1.120   H  6   0.856   (other: 0.024)
    14   1    -0.515224      C  2   1.120   H  7   0.856   (other: 0.024)
    15   1    -0.515208      C  4   1.120   H 10   0.856   (other: 0.024)
    16   1    -0.515208      C  5   1.120   H 13   0.856   (other: 0.024)
    17   2    -0.021927      C  3   0.751   H  1   0.051   H 11   0.051   H  8   0.051   (other: 0.095)

 Localized orbitals saved to record      2200.2  (orbital set 4)


 **********************************************************************************************************************************
 DATASETS  * FILE   NREC   LENGTH (MB)   RECORD NAMES
              1      20       32.07       500      610      700      900      950      970     1000      129      960     1100   
                                          VAR    BASINP    GEOM    SYMINP    ZMAT    AOBASIS   BASIS     P2S    ABASIS      S 
                                         1400     1410     1200     1210     1080     1600     1650     1300     1700     1800   
                                           T        V       H0       H01     AOSYM     SMH    MOLCAS    ERIS     OPER     GRID   

              2       5        3.01       700     1000      520     1800     2200   
                                         GEOM     BASIS   MCVARS    GRID      UKS  

 PROGRAMS   *        TOTAL      IBBA       UKS       INT
 CPU TIMES  *         5.79      0.03      5.11      0.51
 REAL TIME  *         6.48 SEC
 DISK USED  *        35.68 MB      
 **********************************************************************************************************************************
 Molecular orbitals read from record     2200.2  Type=UKS/LOCAL(IBO)  
 Occupation numbers read from record     2200.2  Type=UKS/LOCAL(IBO)  
 Orbital energies read from record       2200.2  Type=UKS/LOCAL(IBO)  
 Redundancy group numbers read from rec  2200.2  Type=UKS/BETA (state 1.1)

 IBBA/STO-3G energy=      0.000000000000

        UKS-SCF 
   -155.91183022
 **********************************************************************************************************************************
 Molpro calculation terminated
