
 Primary working directories    : /local
 Secondary working directories  : /local
 Wavefunction directory         : /local/
 Main file repository           : /local/

 SHA1      : b4a5b34a9e711420743f49e6833241d17c61fb3c
 NAME      : 2099.9.b4a5b34
 ARCHNAME  : linux/x86_64_openmp
 FC        : /cm/shared/languages/GCC-6.1/bin/gfortran
 BLASLIB   : -lblas
 id        : simonbennie

 Nodes     nprocs
 node36-007    1

 Using customized tuning parameters: mindgm=1; mindgv=20; mindgc=4; mindgr=1; noblas=0; minvec=7
 default implementation of scratch files=df  

 memory,500,m
 geomtyp=xyz
 nosym
 noorient
 geometry={
 C         -1.53233        0.02247        0.00000
 C         -0.00192        0.01421        0.00000
 O          0.37239        1.40356        0.00000
 H          1.34248        1.44036        0.00000
 H         -1.92991       -0.99819        0.00000
 H         -1.90797        0.54382       -0.88653
 H         -1.90797        0.54382        0.88653
 C          0.54303       -0.66466       -1.26580
 C          0.54303       -0.66466        1.26580
 H          0.17836       -0.14752       -2.15943
 H          0.17836       -0.14752        2.15943
 H          0.23752       -1.71600       -1.32280
 H          0.23752       -1.71600        1.32280
 H          1.64084       -0.63767       -1.28032
 H          1.64084       -0.63767        1.28032
 }
 basis={ default,tzvp }
 {uks,B97R,direct;wf,42,1,0}
 {ibba,bonds=1}

 Variables initialized (895), CPU time= 0.00 sec
 Commands  initialized (725), CPU time= 0.01 sec, 591 directives.
 Default parameters read. Elapsed time= 0.16 sec

 Checking input...
 Passed
1


                                         ***  PROGRAM SYSTEM MOLPRO  ***
                                       Copyright, TTI GmbH Stuttgart, 2015
                                    Version 2099.9 linked May 26 2017 16:03:21


 **********************************************************************************************************************************
 LABEL *                                                                                 
  64 bit serial version                                                                  DATE: 12-Jun-17          TIME: 20:04:26  
 **********************************************************************************************************************************

 SHA1:             b4a5b34a9e711420743f49e6833241d17c61fb3c
 **********************************************************************************************************************************
 SETTING GEOMTYP        =    XYZ

 Variable memory set to  500000000 words,  buffer space 

 ZSYMEL=NOSYM

 SETTING BASIS          =    TZVP


 Recomputing integrals since basis changed


 Using spherical harmonics

 Library entry C      S def2-TZVP            selected for orbital group  1
 Library entry C      P def2-TZVP            selected for orbital group  1
 Library entry C      D def2-TZVP            selected for orbital group  1
 Library entry C      F def2-TZVP            selected for orbital group  1
 Library entry O      S def2-TZVP            selected for orbital group  2
 Library entry O      P def2-TZVP            selected for orbital group  2
 Library entry O      D def2-TZVP            selected for orbital group  2
 Library entry O      F def2-TZVP            selected for orbital group  2
 Library entry H      S def2-TZVP            selected for orbital group  3
 Library entry H      P def2-TZVP            selected for orbital group  3


 PROGRAM * SEWARD (Integral evaluation for generally contracted gaussian basis sets)     Author: Roland Lindh, 1990

 Geometry written to block  1 of record 700


 Point group  C1  



 ATOMIC COORDINATES

 NR  ATOM    CHARGE       X              Y              Z

   1  C       6.00   -2.895684032    0.042462146    0.000000000
   2  C       6.00   -0.003628274    0.026853008    0.000000000
   3  O       8.00    0.703715112    2.652343999    0.000000000
   4  H       1.00    2.536919528    2.721885921    0.000000000
   5  H       1.00   -3.647001345   -1.886305720    0.000000000
   6  H       1.00   -3.605540754    1.027670861   -1.675298901
   7  H       1.00   -3.605540754    1.027670861    1.675298901
   8  C       6.00    1.026177977   -1.256025366   -2.392015328
   9  C       6.00    1.026177977   -1.256025366    2.392015328
  10  H       1.00    0.337051552   -0.278772398   -4.080731285
  11  H       1.00    0.337051552   -0.278772398    4.080731285
  12  H       1.00    0.448847749   -3.242770030   -2.499729718
  13  H       1.00    0.448847749   -3.242770030    2.499729718
  14  H       1.00    3.100738214   -1.205021658   -2.419454152
  15  H       1.00    3.100738214   -1.205021658    2.419454152

 Bond lengths in Bohr (Angstrom)

 1-2  2.892097881  1-5  2.069933136  1-6  2.069096224  1-7  2.069096224  2-3  2.719106031
     ( 1.530432290)     ( 1.095361444)     ( 1.094918569)     ( 1.094918569)     ( 1.438888946)

  2- 8  2.903104402   2- 9  2.903104402   3- 4  1.834522965   8-10  2.069222119   8-12  2.071730422
       ( 1.536256691)       ( 1.536256691)       ( 0.970787746)       ( 1.094985190)       ( 1.096312526)

  8-14  2.075368508   9-11  2.069222119   9-13  2.071730422   9-15  2.075368508
       ( 1.098237719)       ( 1.094985190)       ( 1.096312526)       ( 1.098237719)

 Bond angles

  1-2-3  104.76902697   1-2-8  110.92255387   1-2-9  110.92255387   2-1-5  110.97328220

  2- 1- 6  110.22090701   2- 1- 7  110.22090701   2- 3- 4  107.25071562   2- 8-10  110.21836376

  2- 8-12  111.57747468   2- 8-14  110.77023896   2- 9-11  110.21836376   2- 9-13  111.57747468

  2- 9-15  110.77023896   3- 2- 8  109.53648747   3- 2- 9  109.53648747   5- 1- 6  108.61190457

  5- 1- 7  108.61190457   6- 1- 7  108.12870271   8- 2- 9  110.96453384  10- 8-12  108.52192632

 10- 8-14  108.08997829  11- 9-13  108.52192632  11- 9-15  108.08997829  12- 8-14  107.54424578

 13- 9-15  107.54424578

 NUCLEAR CHARGE:                   42
 NUMBER OF PRIMITIVE AOS:         335
 NUMBER OF SYMMETRY AOS:          310
 NUMBER OF CONTRACTIONS:          215   ( 215A   )
 NUMBER OF CORE ORBITALS:           5   (   5A   )
 NUMBER OF VALENCE ORBITALS:       30   (  30A   )


 NUCLEAR REPULSION ENERGY  198.77359127


 Eigenvalues of metric

         1 0.262E-03 0.510E-03 0.539E-03 0.594E-03 0.697E-03 0.755E-03 0.210E-02 0.239E-02


 Contracted 2-electron integrals neglected if value below      1.0D-11
 AO integral compression algorithm  1   Integral accuracy      1.0D-11

     977.797 MB (compressed) written to integral file ( 41.7%)


 NUMBER OF SORTED TWO-ELECTRON INTEGRALS:  269595810.     BUFFER LENGTH:  32768
 NUMBER OF SEGMENTS:  17  SEGMENT LENGTH:   15999762      RECORD LENGTH: 524288

 Memory used in sort:      16.56 MW

 SORT1 READ   292827432. AND WROTE   238500613. INTEGRALS IN    690 RECORDS. CPU TIME:     3.26 SEC, REAL TIME:     6.78 SEC
 SORT2 READ   238500613. AND WROTE   269595810. INTEGRALS IN   3730 RECORDS. CPU TIME:     5.20 SEC, REAL TIME:    26.59 SEC

 FILE SIZES:   FILE 1:  1009.7 MBYTE,  FILE 4:  2894.1 MBYTE,   TOTAL:   3903.8 MBYTE

 OPERATOR DM      FOR CENTER  0  COORDINATES:    0.000000    0.000000    0.000000


 **********************************************************************************************************************************
 DATASETS  * FILE   NREC   LENGTH (MB)   RECORD NAMES
              1      19      926.27       500      610      700      900      950      970     1000      129      960     1100   
                                          VAR    BASINP    GEOM    SYMINP    ZMAT    AOBASIS   BASIS     P2S    ABASIS      S 
                                         1400     1410     1200     1210     1080     1600     1650     1300     1700   
                                           T        V       H0       H01     AOSYM     SMH    MOLCAS    ERIS     OPER   

 PROGRAMS   *        TOTAL       INT
 CPU TIMES  *        23.64     23.48
 REAL TIME  *        66.19 SEC
 DISK USED  *         3.90 GB      
 **********************************************************************************************************************************

 Density functional group B97R=B97RDF
 Functional: B97RDF(Automatically generated (new) B97RDF)                      Gradient terms: 1
 Use grid at  1800.2


 Exact exchange will be calculated, factor:  0.2100

 Functional: B97RDF                    Factor:  1.0000

 Generated new metagrid on record  1800.2 with target accuracy 1.0D-06 and 54596 points in CPU time    1.4
 Computed new grid on record 1800.1 in CPU time    1.5
  175219 words reserved for DFT integration

 PROGRAM * UKS-SCF (Unrestricted Kohn-Sham)     Authors: W. Meyer, H.-J. Werner, P.J. Knowles, 1993

 NUMBER OF ELECTRONS:      21+   21-    SPACE SYMMETRY=1    SPIN SYMMETRY: Singlet 
 CONVERGENCE THRESHOLDS:    1.00E-05 (Density)    1.00E-06 (Energy)
 MAX. NUMBER OF ITERATIONS:       60
 INTERPOLATION TYPE:            DIIS
 INTERPOLATION STEPS:              2 (START)      1 (STEP)
 LEVEL SHIFTS:                 -0.20 (ALPHA)  -0.20 (BETA) 



 Use fine grid record 1800.2 for energy threshold  1.0D-06
 Orbital guess generated from atomic densities. Full valence occupancy:   21

 Molecular orbital dump at record        2200.2

 Initial alpha occupation  21
 Initial beta  occupation  21

 ITERATION    DDIFF          GRAD             ENERGY        2-EL.EN.            DIPOLE MOMENTS         DIIS
    1      0.000D+00      0.000D+00      -233.49069495    622.693780    0.69732   -0.80954    0.00000    0
    2      0.433D-02      0.294D-02      -233.65853524    603.950877    0.26422   -0.46088    0.00000    1
    3      0.129D-02      0.143D-02      -233.68863639    608.658959    0.37141   -0.55407    0.00000    2
    4      0.388D-03      0.214D-03      -233.68963165    608.525049    0.35918   -0.50720    0.00000    3
    5      0.363D-03      0.962D-04      -233.68997750    608.448623    0.35457   -0.50603    0.00000    4
    6      0.264D-03      0.274D-04      -233.69003026    608.424200    0.35210   -0.49908    0.00000    5
    7      0.618D-04      0.722D-05      -233.69003283    608.398226    0.35076   -0.49833    0.00000    6
    8      0.176D-04      0.415D-05      -233.69003333    608.406504    0.35074   -0.49856    0.00000    7
    9      0.610D-05      0.561D-06      -233.69003336    608.406563    0.35070   -0.49841    0.00000    6
   10      0.110D-05      0.190D-06      -233.69003336    608.406067    0.35064   -0.49848    0.00000    7

 Final alpha occupancy:  21
 Final beta  occupancy:  21

 !UKS STATE 1.1 Energy               -233.690033358313
 Nuclear energy                       198.77359127
 One-electron energy                 -709.49622282
 Two-electron energy                  304.20303358
 Density functional                   -27.17043539     B97RDF=-27.17043539
 Virial quotient                       -1.00488246
 !UKS STATE 1.1 Dipole moment           0.35064284    -0.49848036     0.00000000
 Dipole moment /Debye                   0.89118683    -1.26692770     0.00000000

 Orbital energies for positive spin:

         1.1          2.1          3.1          4.1          5.1          6.1          7.1          8.1          9.1         10.1
    -19.135842   -10.241042   -10.172264   -10.172258   -10.167074    -1.023485    -0.792151    -0.695470    -0.694404    -0.571021

        11.1         12.1         13.1         14.1         15.1         16.1         17.1         18.1         19.1         20.1
     -0.491268    -0.453750    -0.450797    -0.414068    -0.399398    -0.381195    -0.368061    -0.356742    -0.349699    -0.321181

        21.1         22.1         23.1
     -0.273363     0.025728     0.073046

 Orbital energies for negative spin:

         1.1          2.1          3.1          4.1          5.1          6.1          7.1          8.1          9.1         10.1
    -19.135840   -10.241043   -10.172264   -10.172257   -10.167074    -1.023482    -0.792150    -0.695469    -0.694403    -0.571021

        11.1         12.1         13.1         14.1         15.1         16.1         17.1         18.1         19.1         20.1
     -0.491267    -0.453750    -0.450797    -0.414068    -0.399397    -0.381195    -0.368061    -0.356741    -0.349698    -0.321181

        21.1         22.1         23.1
     -0.273362     0.025729     0.073046

 HOMO    -21.1    -0.273362 =      -7.4385eV
 LUMO     22.1     0.025728 =       0.7001eV
 LUMO-HOMO         0.299090 =       8.1386eV

 EXPECTATION VALUE OF S**2:             0.00000000

 Occupation number threshold for canonical orbitals:  1.999000 (occupied),  0.001000 (virtual)

 Number of pseudo-canonical orbitals per symmetry:   21
 Number of active natural orbitals per symmetry:      0

 Natural orbitals saved to record    2200.2 (Orbital set 3)

 Orbital spaces for UNO-CAS (Min. occupation: 0.020  Max. occupation: 1.980):

 Closed:       21
 Active:        0


 **********************************************************************************************************************************
 DATASETS  * FILE   NREC   LENGTH (MB)   RECORD NAMES
              1      20      928.02       500      610      700      900      950      970     1000      129      960     1100   
                                          VAR    BASINP    GEOM    SYMINP    ZMAT    AOBASIS   BASIS     P2S    ABASIS      S 
                                         1400     1410     1200     1210     1080     1600     1650     1300     1700     1800   
                                           T        V       H0       H01     AOSYM     SMH    MOLCAS    ERIS     OPER     GRID   

              2       5        4.89       700     1000      520     1800     2200   
                                         GEOM     BASIS   MCVARS    GRID      UKS  

 PROGRAMS   *        TOTAL       UKS       INT
 CPU TIMES  *       120.05     96.40     23.48
 REAL TIME  *       172.11 SEC
 DISK USED  *         3.90 GB      
 **********************************************************************************************************************************


 PROGRAM * Intrinsic Basis Bonding Analysis (IBBA)          Author: G. Knizia

 Molecular orbitals read from record     2200.2  Type=UKS/ALPHA (state 1.1)
 Fock matrix read from record            2200.2  Type=UKS/TOTAL (state 1.1)
 Orbital energies read from record       2200.2  Type=UKS/ALPHA (state 1.1)
 Density matrix read from record         2200.2  Type=UKS/CHARGE (state 1.1)

 Number of core orbitals:           5 (   5 )
 Number of closed-shell orbitals:  16 (  16 )

 Basis set MINAO-AUTO-PP generated.      Number of basis functions:   35 

 Polarized AO type:                A = (O Ot + (1-O)(1-Ot)) P12
 Orthogonalization method:         Symmetric (Loewdin)
 Localization functional:          L = sum[A,i] <i|n_A|i>^4 -> max

 Localization group 1:  21 orbitals, occupancy  2.000
 Iterative localization: IB/PM,    7 iter; Final gradient 0.25E-08

 Bond order analysis:       [THRPRINT= 0.020]

   CEN ATOM   CEN ATOM     WIBERG.BO      RENORM.BO
     1   C  -   2   C       0.996425       0.993649
     1   C  -   5   H       0.963431       0.987184
     1   C  -   6   H       0.958555       0.981552
     1   C  -   7   H       0.958555       0.981552

     2   C  -   1   C       0.996425       0.993649
     2   C  -   9   C       0.995112       0.975901
     2   C  -   8   C       0.995112       0.975901
     2   C  -   3   O       0.933610       0.950452

     3   O  -   2   C       0.933610       0.950452
     3   O  -   4   H       0.862460       0.976454
     3   O  -   8   C       0.027497       0.014053
     3   O  -   9   C       0.027497       0.014053

     4   H  -   3   O       0.862460       0.976454

     5   H  -   1   C       0.963431       0.987184

     6   H  -   1   C       0.958555       0.981552

     7   H  -   1   C       0.958555       0.981552

     8   C  -   2   C       0.995112       0.975901
     8   C  -  14   H       0.962843       0.982202
     8   C  -  12   H       0.959255       0.981559
     8   C  -  10   H       0.959099       0.981450
     8   C  -   3   O       0.027497       0.014053

     9   C  -   2   C       0.995112       0.975901
     9   C  -  15   H       0.962843       0.982202
     9   C  -  13   H       0.959255       0.981559
     9   C  -  11   H       0.959099       0.981450
     9   C  -   3   O       0.027497       0.014053

    10   H  -   8   C       0.959099       0.981450

    11   H  -   9   C       0.959099       0.981450

    12   H  -   8   C       0.959255       0.981559

    13   H  -   9   C       0.959255       0.981559

    14   H  -   8   C       0.962843       0.982202

    15   H  -   9   C       0.962843       0.982202


 Valency analysis:

   CEN ATOM   TOT.VALENCE
     1   C       3.936693
     2   C       3.930203
     3   O       1.917623
     4   H       0.882017
     5   H       0.981871
     6   H       0.979180
     7   H       0.979180
     8   C       3.939388
     9   C       3.939388
    10   H       0.979217
    11   H       0.979217
    12   H       0.981078
    13   H       0.981078
    14   H       0.983424
    15   H       0.983424

 Total charge composition:

   CEN ATOM         s          p       ELECTRONS ->P.CHARGE
     1   C       3.04440    3.37162      6.41602   -0.41602
     2   C       2.94061    2.80053      5.74114    0.25886
     3   O       3.65053    4.92193      8.57247   -0.57247
     4   H       0.65651                 0.65651    0.34349
     5   H       0.86536                 0.86536    0.13464
     6   H       0.85571                 0.85571    0.14429
     7   H       0.85571                 0.85571    0.14429
     8   C       3.05066    3.37835      6.42901   -0.42901
     9   C       3.05066    3.37835      6.42901   -0.42901
    10   H       0.85584                 0.85584    0.14416
    11   H       0.85584                 0.85584    0.14416
    12   H       0.86244                 0.86244    0.13756
    13   H       0.86244                 0.86244    0.13756
    14   H       0.87125                 0.87125    0.12875
    15   H       0.87125                 0.87125    0.12875

 Total charge composition, AO contributions:

   CEN ATOM SHL      SPHERICAL COMPONENTS
     1   C  1s       1.99107
     1   C  2s       1.05333
     1   C  2p       1.03825    1.16045    1.17292

     2   C  1s       1.99271
     2   C  2s       0.94791
     2   C  2p       1.00623    0.78578    1.00852

     3   O  1s       1.99712
     3   O  2s       1.65341
     3   O  2p       1.47320    1.49226    1.95647

     4   H  1s       0.65651

     5   H  1s       0.86536

     6   H  1s       0.85571

     7   H  1s       0.85571

     8   C  1s       1.99117
     8   C  2s       1.05948
     8   C  2p       1.14243    1.14244    1.09348

     9   C  1s       1.99117
     9   C  2s       1.05948
     9   C  2p       1.14243    1.14244    1.09348

    10   H  1s       0.85584

    11   H  1s       0.85584

    12   H  1s       0.86244

    13   H  1s       0.86244

    14   H  1s       0.87125

    15   H  1s       0.87125

 Summary of localized orbital composition:   [THRPRINT= 0.020]

   ORB  GRP  ORB.ENERGY      CENTERS/CHARGES
     1   1   -18.974315      O  3   2.000
     2   1   -10.148773      C  2   2.000
     3   1   -10.056675      C  9   2.000
     4   1   -10.056675      C  8   2.000
     5   1   -10.050691      C  1   2.000
     6   1    -0.764365      O  3   1.345   H  4   0.645
     7   1    -0.721101      O  3   1.285   C  2   0.697
     8   1    -0.583270      O  3   1.982
     9   1    -0.576208      C  8   1.008   C  2   0.977
    10   1    -0.576208      C  9   1.008   C  2   0.977
    11   1    -0.575606      C  1   0.991   C  2   0.986   (other: 0.024)
    12   1    -0.508335      C  8   1.133   H 12   0.853
    13   1    -0.508335      C  9   1.133   H 13   0.853
    14   1    -0.506586      C  8   1.124   H 14   0.864
    15   1    -0.506586      C  9   1.124   H 15   0.864
    16   1    -0.504066      C  1   1.128   H  5   0.858
    17   1    -0.502436      C  9   1.142   H 11   0.848
    18   1    -0.502436      C  8   1.142   H 10   0.848
    19   1    -0.497811      C  1   1.141   H  6   0.848
    20   1    -0.497811      C  1   1.141   H  7   0.848
    21   1    -0.306379      O  3   1.956   (other: 0.044)

 Localized orbitals saved to record      2200.2  (orbital set 4)


 **********************************************************************************************************************************
 DATASETS  * FILE   NREC   LENGTH (MB)   RECORD NAMES
              1      20      928.02       500      610      700      900      950      970     1000      129      960     1100   
                                          VAR    BASINP    GEOM    SYMINP    ZMAT    AOBASIS   BASIS     P2S    ABASIS      S 
                                         1400     1410     1200     1210     1080     1600     1650     1300     1700     1800   
                                           T        V       H0       H01     AOSYM     SMH    MOLCAS    ERIS     OPER     GRID   

              2       5        5.27       700     1000      520     1800     2200   
                                         GEOM     BASIS   MCVARS    GRID      UKS  

 PROGRAMS   *        TOTAL      IBBA       UKS       INT
 CPU TIMES  *       120.11      0.06     96.40     23.48
 REAL TIME  *       172.27 SEC
 DISK USED  *         3.90 GB      
 **********************************************************************************************************************************
 Molecular orbitals read from record     2200.2  Type=UKS/LOCAL(IBO)  
 Occupation numbers read from record     2200.2  Type=UKS/LOCAL(IBO)  
 Orbital energies read from record       2200.2  Type=UKS/LOCAL(IBO)  
 Redundancy group numbers read from rec  2200.2  Type=UKS/BETA (state 1.1)

 IBBA/TZVP energy=      0.000000000000

        UKS-SCF 
   -233.69003336
 **********************************************************************************************************************************
 Molpro calculation terminated
