
 Primary working directories    : /local
 Secondary working directories  : /local
 Wavefunction directory         : /local/
 Main file repository           : /local/

 SHA1      : b4a5b34a9e711420743f49e6833241d17c61fb3c
 NAME      : 2099.9.b4a5b34
 ARCHNAME  : linux/x86_64_openmp
 FC        : /cm/shared/languages/GCC-6.1/bin/gfortran
 BLASLIB   : -lblas
 id        : simonbennie

 Nodes     nprocs
 node32-037    1

 Using customized tuning parameters: mindgm=1; mindgv=20; mindgc=4; mindgr=1; noblas=0; minvec=7
 default implementation of scratch files=df  

 memory,500,m
 geomtyp=xyz
 nosym
 noorient
 geometry={
 C         -1.53233        0.02247        0.00000
 C         -0.00192        0.01421        0.00000
 O          0.37239        1.40356        0.00000
 H          1.34248        1.44036        0.00000
 H         -1.92991       -0.99819        0.00000
 H         -1.90797        0.54382       -0.88653
 H         -1.90797        0.54382        0.88653
 C          0.54303       -0.66466       -1.26580
 C          0.54303       -0.66466        1.26580
 H          0.17836       -0.14752       -2.15943
 H          0.17836       -0.14752        2.15943
 H          0.23752       -1.71600       -1.32280
 H          0.23752       -1.71600        1.32280
 H          1.64084       -0.63767       -1.28032
 H          1.64084       -0.63767        1.28032
 }
 basis={ default,qzvp }
 {uks,LYP88,direct;wf,42,1,0}
 {ibba,bonds=1}

 Variables initialized (895), CPU time= 0.01 sec
 Commands  initialized (725), CPU time= 0.01 sec, 591 directives.
 Default parameters read. Elapsed time= 2.49 sec

 Checking input...
 Passed
1


                                         ***  PROGRAM SYSTEM MOLPRO  ***
                                       Copyright, TTI GmbH Stuttgart, 2015
                                    Version 2099.9 linked May 26 2017 16:03:21


 **********************************************************************************************************************************
 LABEL *                                                                                 
  64 bit serial version                                                                  DATE: 16-Jun-17          TIME: 08:58:57  
 **********************************************************************************************************************************

 SHA1:             b4a5b34a9e711420743f49e6833241d17c61fb3c
 **********************************************************************************************************************************
 SETTING GEOMTYP        =    XYZ

 Variable memory set to  500000000 words,  buffer space 

 ZSYMEL=NOSYM

 SETTING BASIS          =    QZVP


 Recomputing integrals since basis changed


 Using spherical harmonics

 Library entry C      S def2-QZVP            selected for orbital group  1
 Library entry C      P def2-QZVP            selected for orbital group  1
 Library entry C      D def2-QZVP            selected for orbital group  1
 Library entry C      F def2-QZVP            selected for orbital group  1
 Library entry C      G def2-QZVP            selected for orbital group  1
 Library entry O      S def2-QZVP            selected for orbital group  2
 Library entry O      P def2-QZVP            selected for orbital group  2
 Library entry O      D def2-QZVP            selected for orbital group  2
 Library entry O      F def2-QZVP            selected for orbital group  2
 Library entry O      G def2-QZVP            selected for orbital group  2
 Library entry H      S def2-QZVP            selected for orbital group  3
 Library entry H      P def2-QZVP            selected for orbital group  3
 Library entry H      D def2-QZVP            selected for orbital group  3
 Library entry H      F def2-QZVP            selected for orbital group  3


 PROGRAM * SEWARD (Integral evaluation for generally contracted gaussian basis sets)     Author: Roland Lindh, 1990

 Geometry written to block  1 of record 700


 Point group  C1  



 ATOMIC COORDINATES

 NR  ATOM    CHARGE       X              Y              Z

   1  C       6.00   -2.895684032    0.042462146    0.000000000
   2  C       6.00   -0.003628274    0.026853008    0.000000000
   3  O       8.00    0.703715112    2.652343999    0.000000000
   4  H       1.00    2.536919528    2.721885921    0.000000000
   5  H       1.00   -3.647001345   -1.886305720    0.000000000
   6  H       1.00   -3.605540754    1.027670861   -1.675298901
   7  H       1.00   -3.605540754    1.027670861    1.675298901
   8  C       6.00    1.026177977   -1.256025366   -2.392015328
   9  C       6.00    1.026177977   -1.256025366    2.392015328
  10  H       1.00    0.337051552   -0.278772398   -4.080731285
  11  H       1.00    0.337051552   -0.278772398    4.080731285
  12  H       1.00    0.448847749   -3.242770030   -2.499729718
  13  H       1.00    0.448847749   -3.242770030    2.499729718
  14  H       1.00    3.100738214   -1.205021658   -2.419454152
  15  H       1.00    3.100738214   -1.205021658    2.419454152

 Bond lengths in Bohr (Angstrom)

 1-2  2.892097881  1-5  2.069933136  1-6  2.069096224  1-7  2.069096224  2-3  2.719106031
     ( 1.530432290)     ( 1.095361444)     ( 1.094918569)     ( 1.094918569)     ( 1.438888946)

  2- 8  2.903104402   2- 9  2.903104402   3- 4  1.834522965   8-10  2.069222119   8-12  2.071730422
       ( 1.536256691)       ( 1.536256691)       ( 0.970787746)       ( 1.094985190)       ( 1.096312526)

  8-14  2.075368508   9-11  2.069222119   9-13  2.071730422   9-15  2.075368508
       ( 1.098237719)       ( 1.094985190)       ( 1.096312526)       ( 1.098237719)

 Bond angles

  1-2-3  104.76902697   1-2-8  110.92255387   1-2-9  110.92255387   2-1-5  110.97328220

  2- 1- 6  110.22090701   2- 1- 7  110.22090701   2- 3- 4  107.25071562   2- 8-10  110.21836376

  2- 8-12  111.57747468   2- 8-14  110.77023896   2- 9-11  110.21836376   2- 9-13  111.57747468

  2- 9-15  110.77023896   3- 2- 8  109.53648747   3- 2- 9  109.53648747   5- 1- 6  108.61190457

  5- 1- 7  108.61190457   6- 1- 7  108.12870271   8- 2- 9  110.96453384  10- 8-12  108.52192632

 10- 8-14  108.08997829  11- 9-13  108.52192632  11- 9-15  108.08997829  12- 8-14  107.54424578

 13- 9-15  107.54424578

 NUCLEAR CHARGE:                   42
 NUMBER OF PRIMITIVE AOS:         840
 NUMBER OF SYMMETRY AOS:          715
 NUMBER OF CONTRACTIONS:          585   ( 585A   )
 NUMBER OF CORE ORBITALS:           5   (   5A   )
 NUMBER OF VALENCE ORBITALS:       30   (  30A   )


 NUCLEAR REPULSION ENERGY  198.77359127


 Eigenvalues of metric

         1 0.447E-04 0.459E-04 0.470E-04 0.743E-04 0.823E-04 0.917E-04 0.943E-04 0.107E-03


 Contracted 2-electron integrals neglected if value below      1.0D-12
 AO integral compression algorithm  1   Integral accuracy      1.0D-12

     40752.906 MB (compressed) written to integral file ( 33.4%)


 NUMBER OF SORTED TWO-ELECTRON INTEGRALS:14689922715.     BUFFER LENGTH:  32768
 NUMBER OF SEGMENTS: 184  SEGMENT LENGTH:   79999773      RECORD LENGTH: 262144

 Memory used in sort:      80.29 MW

 SORT1 READ 15248138275. AND WROTE 10587813328. INTEGRALS IN  60679 RECORDS. CPU TIME:   185.77 SEC, REAL TIME:  2105.76 SEC
 SORT2 READ 10587813328. AND WROTE 14689922715. INTEGRALS IN 155460 RECORDS. CPU TIME:   318.50 SEC, REAL TIME:  2542.56 SEC

 FILE SIZES:   FILE 1: 40795.6 MBYTE,  FILE 4:127253.1 MBYTE,   TOTAL: 168048.8 MBYTE

 OPERATOR DM      FOR CENTER  0  COORDINATES:    0.000000    0.000000    0.000000


 **********************************************************************************************************************************
 DATASETS  * FILE   NREC   LENGTH (MB)   RECORD NAMES
              1      19    37754.71       500      610      700      900      950      970     1000      129      960     1100   
                                          VAR    BASINP    GEOM    SYMINP    ZMAT    AOBASIS   BASIS     P2S    ABASIS      S 
                                         1400     1410     1200     1210     1080     1600     1650     1300     1700   
                                           T        V       H0       H01     AOSYM     SMH    MOLCAS    ERIS     OPER   

 PROGRAMS   *        TOTAL       INT
 CPU TIMES  *      1170.72   1170.57
 REAL TIME  *      5484.11 SEC
 DISK USED  *       168.05 GB      
 **********************************************************************************************************************************

 Density functional group LYP88=LYP
 Functional: LYP(Automatically generated (new) LYP)                            Gradient terms: 1
 Use grid at  1800.2

 Functional: LYP                       Factor:  1.0000

 Generated new metagrid on record  1800.2 with target accuracy 1.0D-06 and 58228 points in CPU time    1.6
 Computed new grid on record 1800.1 in CPU time    1.8
  469144 words reserved for DFT integration

 PROGRAM * UKS-SCF (Unrestricted Kohn-Sham)     Authors: W. Meyer, H.-J. Werner, P.J. Knowles, 1993

 NUMBER OF ELECTRONS:      21+   21-    SPACE SYMMETRY=1    SPIN SYMMETRY: Singlet 
 CONVERGENCE THRESHOLDS:    1.00E-05 (Density)    1.00E-06 (Energy)
 MAX. NUMBER OF ITERATIONS:       60
 INTERPOLATION TYPE:            DIIS
 INTERPOLATION STEPS:              2 (START)      1 (STEP)
 LEVEL SHIFTS:                 -0.20 (ALPHA)  -0.20 (BETA) 



 Use fine grid record 1800.2 for energy threshold  1.0D-06
 Orbital guess generated from atomic densities. Full valence occupancy:   21

 Molecular orbital dump at record        2200.2

 Initial alpha occupation  21
 Initial beta  occupation  21

 ITERATION    DDIFF          GRAD             ENERGY        2-EL.EN.            DIPOLE MOMENTS         DIIS
    1      0.000D+00      0.000D+00      -198.78583370    529.049756    2.80837    7.87546    0.00000    0
    2      0.685D+00      0.413D-02      -195.01273860    663.260587   -2.37036   -9.64185   -0.00000    1
    3      0.173D-01      0.819D-02      -201.34942008    616.598789   -0.15906   -3.36619   -0.00000    2
    4      0.102D-01      0.268D-02      -202.15364712    598.262414   -0.08897   -1.91328   -0.00000    3
    5      0.199D-02      0.942D-03      -202.28533250    592.094179    0.18025   -0.87296    0.00000    4
    6      0.124D-01      0.289D-03      -202.30802001    588.390514    0.34639   -0.04920   -0.00000    5
    7      0.703D-02      0.177D-03      -202.31283852    588.478959    0.25929   -0.21724    0.00000    6
    8      0.247D-02      0.772D-04      -202.31395605    589.354156    0.28431   -0.17479    0.00000    7
    9      0.547D-02      0.462D-04      -202.31475923    589.406412    0.28531   -0.16236    0.00000    8
   10      0.233D-02      0.132D-04      -202.31487361    589.505490    0.27068   -0.17888    0.00000    9
   11      0.956D-03      0.387D-05      -202.31488998    589.496204    0.27231   -0.17528    0.00000    8
   12      0.328D-03      0.191D-05      -202.31489242    589.498667    0.27033   -0.17414    0.00000    8
   13      0.123D-03      0.107D-05      -202.31489294    589.498766    0.27062   -0.17472    0.00000    9
   14      0.662D-04      0.314D-06      -202.31489302    589.498325    0.27031   -0.17457    0.00000    9
   15      0.110D-04      0.135D-06      -202.31489303    589.498090    0.27031   -0.17445    0.00000    9
   16      0.103D-04      0.612D-07      -202.31489303    589.498181    0.27028   -0.17446    0.00000    9
   17      0.305D-05      0.130D-07      -202.31489303    589.498188    0.27027   -0.17444   -0.00000    8
   18      0.120D-05      0.492D-08      -202.31489303    589.498162    0.27026   -0.17444   -0.00000    8

 Final alpha occupancy:  21
 Final beta  occupancy:  21

 !UKS STATE 1.1 Energy               -202.314893034477
 Nuclear energy                       198.77359127
 One-electron energy                 -694.49577890
 Two-electron energy                  294.74908086
 Density functional                    -1.34178627     LYP=-1.34178627
 Virial quotient                       -0.97289015
 !UKS STATE 1.1 Dipole moment           0.27026186    -0.17444167    -0.00000000
 Dipole moment /Debye                   0.68689213    -0.44335746    -0.00000000

 Orbital energies for positive spin:

         1.1          2.1          3.1          4.1          5.1          6.1          7.1          8.1          9.1         10.1
    -16.798835    -8.405508    -8.357967    -8.357965    -8.354597    -0.639870    -0.444012    -0.354249    -0.351893    -0.248397

        11.1         12.1         13.1         14.1         15.1         16.1         17.1         18.1         19.1         20.1
     -0.191364    -0.165426    -0.164951    -0.121037    -0.108636    -0.087912    -0.061214    -0.060479    -0.056115    -0.032329

        21.1         22.1         23.1
      0.015797     0.089145     0.122519

 Orbital energies for negative spin:

         1.1          2.1          3.1          4.1          5.1          6.1          7.1          8.1          9.1         10.1
    -16.798835    -8.405508    -8.357967    -8.357965    -8.354597    -0.639870    -0.444012    -0.354249    -0.351893    -0.248397

        11.1         12.1         13.1         14.1         15.1         16.1         17.1         18.1         19.1         20.1
     -0.191364    -0.165426    -0.164951    -0.121037    -0.108636    -0.087912    -0.061214    -0.060479    -0.056115    -0.032329

        21.1         22.1         23.1
      0.015797     0.089145     0.122519

 HOMO     21.1     0.015797 =       0.4299eV
 LUMO     22.1     0.089145 =       2.4258eV
 LUMO-HOMO         0.073348 =       1.9959eV

 EXPECTATION VALUE OF S**2:             0.00000000

 Natural orbitals saved to record    2200.2 (Orbital set 3)

 Orbital spaces for UNO-CAS (Min. occupation: 0.020  Max. occupation: 1.980):

 Closed:       21
 Active:        0


 **********************************************************************************************************************************
 DATASETS  * FILE   NREC   LENGTH (MB)   RECORD NAMES
              1      20    37756.57       500      610      700      900      950      970     1000      129      960     1100   
                                          VAR    BASINP    GEOM    SYMINP    ZMAT    AOBASIS   BASIS     P2S    ABASIS      S 
                                         1400     1410     1200     1210     1080     1600     1650     1300     1700     1800   
                                           T        V       H0       H01     AOSYM     SMH    MOLCAS    ERIS     OPER     GRID   

              2       5       16.83       700     1000      520     1800     2200   
                                         GEOM     BASIS   MCVARS    GRID      UKS  

 PROGRAMS   *        TOTAL       UKS       INT
 CPU TIMES  *      3338.17   2167.45   1170.57
 REAL TIME  *      8164.56 SEC
 DISK USED  *       168.05 GB      
 **********************************************************************************************************************************


 PROGRAM * Intrinsic Basis Bonding Analysis (IBBA)          Author: G. Knizia

 Molecular orbitals read from record     2200.2  Type=UKS/ALPHA (state 1.1)
 Fock matrix read from record            2200.2  Type=UKS/TOTAL (state 1.1)
 Orbital energies read from record       2200.2  Type=UKS/ALPHA (state 1.1)
 Density matrix read from record         2200.2  Type=UKS/CHARGE (state 1.1)

 Number of core orbitals:           5 (   5 )
 Number of closed-shell orbitals:  16 (  16 )

 Basis set MINAO-AUTO-PP generated.      Number of basis functions:   35 

 Polarized AO type:                A = (O Ot + (1-O)(1-Ot)) P12
 Orthogonalization method:         Symmetric (Loewdin)
 Localization functional:          L = sum[A,i] <i|n_A|i>^4 -> max

 Localization group 1:  21 orbitals, occupancy  2.000
 Iterative localization: IB/PM,    8 iter; Final gradient 0.39E-09

 Bond order analysis:       [THRPRINT= 0.020]

   CEN ATOM   CEN ATOM     WIBERG.BO      RENORM.BO
     1   C  -   2   C       0.984476       0.997077
     1   C  -   5   H       0.954342       0.968808
     1   C  -   6   H       0.946538       0.952312
     1   C  -   7   H       0.946538       0.952312
     1   C  -   3   O       0.032006       0.017707
     1   C  -   4   H       0.025777       0.032492
     1   C  -  14   H       0.021617       0.022846
     1   C  -  15   H       0.021617       0.022846

     2   C  -   9   C       0.989496       0.973680
     2   C  -   8   C       0.989496       0.973680
     2   C  -   1   C       0.984476       0.997077
     2   C  -   3   O       0.968863       0.938395

     3   O  -   2   C       0.968863       0.938395
     3   O  -   4   H       0.902204       0.930482
     3   O  -   9   C       0.054226       0.029232
     3   O  -   8   C       0.054226       0.029232
     3   O  -  13   H       0.037432       0.026462
     3   O  -  12   H       0.037432       0.026462
     3   O  -   1   C       0.032006       0.017707
     3   O  -   5   H       0.022115       0.016946

     4   H  -   3   O       0.902204       0.930482
     4   H  -   1   C       0.025777       0.032492

     5   H  -   1   C       0.954342       0.968808
     5   H  -   3   O       0.022115       0.016946

     6   H  -   1   C       0.946538       0.952312
     6   H  -   9   C       0.024460       0.025372

     7   H  -   1   C       0.946538       0.952312
     7   H  -   8   C       0.024460       0.025372

     8   C  -   2   C       0.989496       0.973680
     8   C  -  10   H       0.946649       0.950224
     8   C  -  14   H       0.946399       0.956939
     8   C  -  12   H       0.944518       0.949479
     8   C  -   3   O       0.054226       0.029232
     8   C  -  11   H       0.024601       0.025508
     8   C  -   7   H       0.024460       0.025372

     9   C  -   2   C       0.989496       0.973680
     9   C  -  11   H       0.946649       0.950224
     9   C  -  15   H       0.946399       0.956939
     9   C  -  13   H       0.944518       0.949479
     9   C  -   3   O       0.054226       0.029232
     9   C  -  10   H       0.024601       0.025508
     9   C  -   6   H       0.024460       0.025372

    10   H  -   8   C       0.946649       0.950224
    10   H  -   9   C       0.024601       0.025508

    11   H  -   9   C       0.946649       0.950224
    11   H  -   8   C       0.024601       0.025508

    12   H  -   8   C       0.944518       0.949479
    12   H  -   3   O       0.037432       0.026462

    13   H  -   9   C       0.944518       0.949479
    13   H  -   3   O       0.037432       0.026462

    14   H  -   8   C       0.946399       0.956939
    14   H  -   1   C       0.021617       0.022846

    15   H  -   9   C       0.946399       0.956939
    15   H  -   1   C       0.021617       0.022846


 Valency analysis:

   CEN ATOM   TOT.VALENCE
     1   C       3.965412
     2   C       3.950417
     3   O       2.134490
     4   H       0.954159
     5   H       0.995307
     6   H       0.995136
     7   H       0.995136
     8   C       3.966308
     9   C       3.966308
    10   H       0.995060
    11   H       0.995060
    12   H       0.995638
    13   H       0.995638
    14   H       0.996460
    15   H       0.996460

 Total charge composition:

   CEN ATOM         s          p       ELECTRONS ->P.CHARGE
     1   C       2.95212    3.27573      6.22785   -0.22785
     2   C       2.87392    2.86486      5.73878    0.26122
     3   O       3.57972    4.76423      8.34394   -0.34394
     4   H       0.78589                 0.78589    0.21411
     5   H       0.93150                 0.93150    0.06850
     6   H       0.93026                 0.93026    0.06974
     7   H       0.93026                 0.93026    0.06974
     8   C       2.97176    3.27984      6.25159   -0.25159
     9   C       2.97176    3.27984      6.25159   -0.25159
    10   H       0.92971                 0.92971    0.07029
    11   H       0.92971                 0.92971    0.07029
    12   H       0.93395                 0.93395    0.06605
    13   H       0.93395                 0.93395    0.06605
    14   H       0.94050                 0.94050    0.05950
    15   H       0.94050                 0.94050    0.05950

 Total charge composition, AO contributions:

   CEN ATOM SHL      SPHERICAL COMPONENTS
     1   C  1s       1.99696
     1   C  2s       0.95516
     1   C  2p       1.02440    1.12032    1.13102

     2   C  1s       1.99771
     2   C  2s       0.87621
     2   C  2p       1.01053    0.84124    1.01309

     3   O  1s       1.99871
     3   O  2s       1.58101
     3   O  2p       1.38524    1.47176    1.90723

     4   H  1s       0.78589

     5   H  1s       0.93150

     6   H  1s       0.93026

     7   H  1s       0.93026

     8   C  1s       1.99701
     8   C  2s       0.97475
     8   C  2p       1.10236    1.10949    1.06799

     9   C  1s       1.99701
     9   C  2s       0.97475
     9   C  2p       1.10236    1.10949    1.06799

    10   H  1s       0.92971

    11   H  1s       0.92971

    12   H  1s       0.93395

    13   H  1s       0.93395

    14   H  1s       0.94050

    15   H  1s       0.94050

 Summary of localized orbital composition:   [THRPRINT= 0.020]

   ORB  GRP  ORB.ENERGY      CENTERS/CHARGES
     1   1   -16.697557      O  3   2.000
     2   1    -8.333902      C  2   2.000
     3   1    -8.272832      C  9   2.000
     4   1    -8.272832      C  8   2.000
     5   1    -8.269224      C  1   2.000
     6   1    -0.418333      O  3   1.231   C  2   0.742   (other: 0.027)
     7   1    -0.391914      O  3   1.230   H  4   0.753
     8   1    -0.270611      C  1   0.998   C  2   0.953   (other: 0.048)
     9   1    -0.269734      C  8   1.023   C  2   0.947   (other: 0.031)
    10   1    -0.269734      C  9   1.023   C  2   0.947   (other: 0.031)
    11   1    -0.196658      O  3   1.964   (other: 0.036)
    12   1    -0.188718      C  8   1.048   H 14   0.926   (other: 0.026)
    13   1    -0.188718      C  9   1.048   H 15   0.926   (other: 0.026)
    14   1    -0.187679      C  9   1.063   H 13   0.913   (other: 0.024)
    15   1    -0.187679      C  8   1.063   H 12   0.913   (other: 0.024)
    16   1    -0.185371      C  1   1.059   H  5   0.918   (other: 0.023)
    17   1    -0.182939      C  9   1.069   H 11   0.912
    18   1    -0.182939      C  8   1.069   H 10   0.912
    19   1    -0.180974      C  1   1.067   H  6   0.913   (other: 0.021)
    20   1    -0.180974      C  1   1.067   H  7   0.913   (other: 0.021)
    21   1    -0.017646      O  3   1.907   C  2   0.028   (other: 0.065)

 Localized orbitals saved to record      2200.2  (orbital set 4)


 **********************************************************************************************************************************
 DATASETS  * FILE   NREC   LENGTH (MB)   RECORD NAMES
              1      20    37756.57       500      610      700      900      950      970     1000      129      960     1100   
                                          VAR    BASINP    GEOM    SYMINP    ZMAT    AOBASIS   BASIS     P2S    ABASIS      S 
                                         1400     1410     1200     1210     1080     1600     1650     1300     1700     1800   
                                           T        V       H0       H01     AOSYM     SMH    MOLCAS    ERIS     OPER     GRID   

              2       5       19.57       700     1000      520     1800     2200   
                                         GEOM     BASIS   MCVARS    GRID      UKS  

 PROGRAMS   *        TOTAL      IBBA       UKS       INT
 CPU TIMES  *      3338.63      0.46   2167.45   1170.57
 REAL TIME  *      8165.24 SEC
 DISK USED  *       168.05 GB      
 **********************************************************************************************************************************
 Molecular orbitals read from record     2200.2  Type=UKS/LOCAL(IBO)  
 Occupation numbers read from record     2200.2  Type=UKS/LOCAL(IBO)  
 Orbital energies read from record       2200.2  Type=UKS/LOCAL(IBO)  
 Redundancy group numbers read from rec  2200.2  Type=UKS/BETA (state 1.1)

 IBBA/QZVP energy=      0.000000000000

        UKS-SCF 
   -202.31489303
 **********************************************************************************************************************************
 Molpro calculation terminated
