
 Primary working directories    : /tmp/sb13343
 Secondary working directories  : /tmp/sb13343
 Wavefunction directory         : /panfs/panasas01/chem/sb13343/wfu/
 Main file repository           : /tmp/sb13343/

 SHA1      : b4a5b34a9e711420743f49e6833241d17c61fb3c
 NAME      : 2099.9.b4a5b34
 ARCHNAME  : linux/x86_64_openmp
 FC        : /cm/shared/languages/GCC-6.1/bin/gfortran
 BLASLIB   : -lblas
 id        : simonbennie

 Nodes     nprocs
 node32-019    1

 Using customized tuning parameters: mindgm=1; mindgv=20; mindgc=4; mindgr=1; noblas=0; minvec=7
 default implementation of scratch files=df  

 memory,500,m
 geomtyp=xyz
 nosym
 noorient
 geometry={
 C          0.00000        0.00000        0.00000
 H          0.00000        0.00000        1.10056
 C          1.46209        0.00000       -0.46855
 C         -0.73105       -1.26621       -0.46855
 C         -0.73105        1.26621       -0.46855
 H          1.52118        0.00000       -1.56505
 H         -0.76059       -1.31738       -1.56505
 H         -0.76059        1.31738       -1.56505
 H          1.99755        0.88622       -0.10723
 H          1.99755       -0.88622       -0.10723
 H         -0.23129       -2.17304       -0.10723
 H         -1.76626       -1.28682       -0.10723
 H         -1.76626        1.28682       -0.10723
 H         -0.23129        2.17304       -0.10723
 }
 basis={ default,svp }
 {ks,PBEREV,direct;wf,34,1,0}
 {ibba,bonds=1}

 Variables initialized (895), CPU time= 0.00 sec
 Commands  initialized (725), CPU time= 0.02 sec, 591 directives.
 Default parameters read. Elapsed time= 0.08 sec

 Checking input...
 Passed
1


                                         ***  PROGRAM SYSTEM MOLPRO  ***
                                       Copyright, TTI GmbH Stuttgart, 2015
                                    Version 2099.9 linked May 26 2017 16:03:21


 **********************************************************************************************************************************
 LABEL *                                                                                 
  64 bit serial version                                                                  DATE: 09-Jun-17          TIME: 00:12:45  
 **********************************************************************************************************************************

 SHA1:             b4a5b34a9e711420743f49e6833241d17c61fb3c
 **********************************************************************************************************************************
 SETTING GEOMTYP        =    XYZ

 Variable memory set to  500000000 words,  buffer space 

 ZSYMEL=NOSYM

 SETTING BASIS          =    SVP


 Recomputing integrals since basis changed


 Using spherical harmonics

 Library entry C      S def2-SVP             selected for orbital group  1
 Library entry C      P def2-SVP             selected for orbital group  1
 Library entry C      D def2-SVP             selected for orbital group  1
 Library entry H      S def2-SVP             selected for orbital group  2
 Library entry H      P def2-SVP             selected for orbital group  2


 PROGRAM * SEWARD (Integral evaluation for generally contracted gaussian basis sets)     Author: Roland Lindh, 1990

 Geometry written to block  1 of record 700


 Point group  C1  



 ATOMIC COORDINATES

 NR  ATOM    CHARGE       X              Y              Z

   1  C       6.00    0.000000000    0.000000000    0.000000000
   2  H       1.00    0.000000000    0.000000000    2.079756984
   3  C       6.00    2.762949669    0.000000000   -0.885431176
   4  C       6.00   -1.381484283   -2.392790116   -0.885431176
   5  C       6.00   -1.381484283    2.392790116   -0.885431176
   6  H       1.00    2.874613586    0.000000000   -2.957515871
   7  H       1.00   -1.437306793   -2.489487402   -2.957515871
   8  H       1.00   -1.437306793    2.489487402   -2.957515871
   9  H       1.00    3.774822420    1.674713086   -0.202635332
  10  H       1.00    3.774822420   -1.674713086   -0.202635332
  11  H       1.00   -0.437074755   -4.106450458   -0.202635332
  12  H       1.00   -3.337747665   -2.431737372   -0.202635332
  13  H       1.00   -3.337747665    2.431737372   -0.202635332
  14  H       1.00   -0.437074755    4.106450458   -0.202635332

 Bond lengths in Bohr (Angstrom)

 1-2  2.079756984  1-3  2.901358172  1-4  2.901367218  1-5  2.901367218  3-6  2.075091279
     ( 1.100560000)     ( 1.535332625)     ( 1.535337412)     ( 1.535337412)     ( 1.098091015)

  3- 9  2.072380406   3-10  2.072380406   4- 7  2.075090722   4-11  2.072378172   4-12  2.072364222
       ( 1.096656483)       ( 1.096656483)       ( 1.098090721)       ( 1.096655301)       ( 1.096647919)

  5- 8  2.075090722   5-13  2.072364222   5-14  2.072378172
       ( 1.098090721)       ( 1.096647919)       ( 1.096655301)

 Bond angles

  1- 3- 6  110.85354902   1- 3- 9  111.37220114   1- 3-10  111.37220114   1- 4- 7  110.85320625

  1- 4-11  111.37204414   1- 4-12  111.37216555   1- 5- 8  110.85320625   1- 5-13  111.37216555

  1- 5-14  111.37204414   2- 1- 3  107.76888332   2- 1- 4  107.76882608   2- 1- 5  107.76882608

  3-1-4  111.11870751   3-1-5  111.11870751   4-1-5  111.11845005   6-3-9  107.62119374

  6- 3-10  107.62119374   7- 4-11  107.62125572   7- 4-12  107.62162102   8- 5-13  107.62162102

  8- 5-14  107.62125572   9- 3-10  107.82352924  11- 4-12  107.82360822  13- 5-14  107.82360822

 NUCLEAR CHARGE:                   34
 NUMBER OF PRIMITIVE AOS:         170
 NUMBER OF SYMMETRY AOS:          166
 NUMBER OF CONTRACTIONS:          106   ( 106A   )
 NUMBER OF CORE ORBITALS:           4   (   4A   )
 NUMBER OF VALENCE ORBITALS:       26   (  26A   )


 NUCLEAR REPULSION ENERGY  134.07051350


 Eigenvalues of metric

         1 0.225E-02 0.614E-02 0.614E-02 0.233E-01 0.256E-01 0.268E-01 0.268E-01 0.277E-01


 Contracted 2-electron integrals neglected if value below      1.0D-11
 AO integral compression algorithm  1   Integral accuracy      1.0D-11

     64.750 MB (compressed) written to integral file ( 46.7%)


 NUMBER OF SORTED TWO-ELECTRON INTEGRALS:   16082956.     BUFFER LENGTH:  32768
 NUMBER OF SEGMENTS:   2  SEGMENT LENGTH:   15997996      RECORD LENGTH: 524288

 Memory used in sort:      16.56 MW

 SORT1 READ    17384690. AND WROTE    14795173. INTEGRALS IN     44 RECORDS. CPU TIME:     0.23 SEC, REAL TIME:     0.46 SEC
 SORT2 READ    14795173. AND WROTE    16082956. INTEGRALS IN    247 RECORDS. CPU TIME:     0.42 SEC, REAL TIME:     0.55 SEC

 FILE SIZES:   FILE 1:    95.4 MBYTE,  FILE 4:   184.6 MBYTE,   TOTAL:    279.9 MBYTE

 OPERATOR DM      FOR CENTER  0  COORDINATES:    0.000000    0.000000    0.000000


 **********************************************************************************************************************************
 DATASETS  * FILE   NREC   LENGTH (MB)   RECORD NAMES
              1      19       87.57       500      610      700      900      950      970     1000      129      960     1100   
                                          VAR    BASINP    GEOM    SYMINP    ZMAT    AOBASIS   BASIS     P2S    ABASIS      S 
                                         1400     1410     1200     1210     1080     1600     1650     1300     1700   
                                           T        V       H0       H01     AOSYM     SMH    MOLCAS    ERIS     OPER   

 PROGRAMS   *        TOTAL       INT
 CPU TIMES  *         2.79      2.65
 REAL TIME  *         3.64 SEC
 DISK USED  *       280.45 MB      
 **********************************************************************************************************************************

 Density functional group PBEREV=PBEXREV+PBEC
 Functional: PBEXREV(Automatically generated (new) PBEXREV)                    Gradient terms: 1
 Functional: PBEC(Automatically generated (new) PBEC)                          Gradient terms: 1
 Use grid at  1800.2

 Functional: PBEXREV                   Factor:  1.0000
 Functional: PBEC                      Factor:  1.0000

 Generated new metagrid on record  1800.2 with target accuracy 1.0D-06 and 45620 points in CPU time    1.1
 Computed new grid on record 1800.1 in CPU time    1.3
   88342 words reserved for DFT integration

 PROGRAM * RKS-SCF (Restricted closed shell Kohn-Sham)     Authors: W. Meyer, H.-J. Werner, P.J. Knowles, 1993

 NUMBER OF ELECTRONS:      17+   17-    SPACE SYMMETRY=1    SPIN SYMMETRY: Singlet 
 CONVERGENCE THRESHOLDS:    1.00E-05 (Density)    1.00E-06 (Energy)
 MAX. NUMBER OF ITERATIONS:       60
 INTERPOLATION TYPE:            DIIS
 INTERPOLATION STEPS:              2 (START)      1 (STEP)
 LEVEL SHIFTS:                  0.00 (CLOSED)  0.00 (OPEN) 



 Use fine grid record 1800.2 for energy threshold  1.0D-06
 Orbital guess generated from atomic densities. Full valence occupancy:   17

 Molecular orbital dump at record        2100.2

 Initial occupancy:  17

 ITERATION    DDIFF          GRAD             ENERGY        2-EL.EN.            DIPOLE MOMENTS         DIIS   ORB.
    1      0.000D+00      0.000D+00      -158.02612030    433.603345   -0.00016   -0.00000   -0.02225    0    start
    2      0.000D+00      0.121D-01      -157.65199291    396.006535   -0.00017   -0.00000    0.05778    1    diag
    3      0.324D-01      0.188D-01      -158.28178809    419.449164   -0.00018   -0.00000    0.08270    2    diag
    4      0.229D-01      0.129D-02      -158.28353949    418.751235   -0.00015   -0.00000    0.02390    3    diag
    5      0.166D-02      0.714D-03      -158.28426872    418.834048   -0.00015   -0.00000    0.02344    4    diag
    6      0.587D-03      0.117D-03      -158.28428857    418.829395   -0.00015   -0.00000    0.04272    5    diag
    7      0.142D-03      0.224D-04      -158.28428943    418.837684   -0.00015   -0.00000    0.03436    6    diag
    8      0.355D-04      0.630D-05      -158.28428951    418.838535   -0.00015   -0.00000    0.03632    7    diag
    9      0.822D-05      0.215D-06      -158.28428951    418.838151   -0.00015   -0.00000    0.03628    0    orth

 Final occupancy:  17

 !RKS STATE 1.1 Energy               -158.284289507926
 Nuclear energy                       134.07051350
 One-electron energy                 -476.41998857
 Two-electron energy                  209.41907573
 Density functional                   -25.35389016     PBEXREV=-24.26206972 PBEC= -1.09182044
 Virial quotient                       -1.01338229
 !RKS STATE 1.1 Dipole moment          -0.00014657    -0.00000000     0.03627836
 Dipole moment /Debye                  -0.00037251    -0.00000000     0.09220435

 Orbital energies:

         1.1          2.1          3.1          4.1          5.1          6.1          7.1          8.1          9.1         10.1
     -9.907831    -9.892631    -9.892613    -9.892597    -0.717930    -0.605024    -0.605018    -0.492734    -0.407883    -0.378477

        11.1         12.1         13.1         14.1         15.1         16.1         17.1         18.1         19.1
     -0.378467    -0.332802    -0.332791    -0.313821    -0.283560    -0.283559    -0.275683     0.036617     0.079086

 HOMO     17.1    -0.275683 =      -7.5017eV
 LUMO     18.1     0.036617 =       0.9964eV
 LUMO-HOMO         0.312300 =       8.4981eV


 **********************************************************************************************************************************
 DATASETS  * FILE   NREC   LENGTH (MB)   RECORD NAMES
              1      20       89.03       500      610      700      900      950      970     1000      129      960     1100   
                                          VAR    BASINP    GEOM    SYMINP    ZMAT    AOBASIS   BASIS     P2S    ABASIS      S 
                                         1400     1410     1200     1210     1080     1600     1650     1300     1700     1800   
                                           T        V       H0       H01     AOSYM     SMH    MOLCAS    ERIS     OPER     GRID   

              2       5        3.22       700     1000      520     1800     2100   
                                         GEOM     BASIS   MCVARS    GRID      RKS  

 PROGRAMS   *        TOTAL        KS       INT
 CPU TIMES  *        12.47      9.68      2.65
 REAL TIME  *        14.07 SEC
 DISK USED  *       280.45 MB      
 **********************************************************************************************************************************


 PROGRAM * Intrinsic Basis Bonding Analysis (IBBA)          Author: G. Knizia

 Molecular orbitals read from record     2100.2  Type=RKS/CANONICAL (state 1.1)
 Fock matrix read from record            2100.2  Type=RKS/TOTAL (state 1.1)
 Orbital energies read from record       2100.2  Type=RKS/CANONICAL (state 1.1)
 Density matrix read from record         2100.2  Type=RKS/CHARGE (state 1.1)

 Number of core orbitals:           4 (   4 )
 Number of closed-shell orbitals:  13 (  13 )

 Basis set MINAO-AUTO-PP generated.      Number of basis functions:   30 

 Polarized AO type:                A = (O Ot + (1-O)(1-Ot)) P12
 Orthogonalization method:         Symmetric (Loewdin)
 Localization functional:          L = sum[A,i] <i|n_A|i>^4 -> max

 Localization group 1:  17 orbitals, occupancy  2.000
 Iterative localization: IB/PM,    7 iter; Final gradient 0.20E-08

 Bond order analysis:       [THRPRINT= 0.020]

   CEN ATOM   CEN ATOM     WIBERG.BO      RENORM.BO
     1   C  -   3   C       1.014923       1.010059
     1   C  -   5   C       1.014913       1.010043
     1   C  -   4   C       1.014913       1.010043
     1   C  -   2   H       0.930894       0.953734

     2   H  -   1   C       0.930894       0.953734

     3   C  -   1   C       1.014923       1.010059
     3   C  -   9   H       0.964108       0.982339
     3   C  -  10   H       0.964108       0.982339
     3   C  -   6   H       0.962450       0.977117

     4   C  -   1   C       1.014913       1.010043
     4   C  -  11   H       0.964120       0.982342
     4   C  -  12   H       0.964105       0.982342
     4   C  -   7   H       0.962439       0.977111

     5   C  -   1   C       1.014913       1.010043
     5   C  -  14   H       0.964120       0.982342
     5   C  -  13   H       0.964105       0.982342
     5   C  -   8   H       0.962439       0.977111

     6   H  -   3   C       0.962450       0.977117

     7   H  -   4   C       0.962439       0.977111

     8   H  -   5   C       0.962439       0.977111

     9   H  -   3   C       0.964108       0.982339

    10   H  -   3   C       0.964108       0.982339

    11   H  -   4   C       0.964120       0.982342

    12   H  -   4   C       0.964105       0.982342

    13   H  -   5   C       0.964105       0.982342

    14   H  -   5   C       0.964120       0.982342


 Valency analysis:

   CEN ATOM   TOT.VALENCE
     1   C       3.982116
     2   H       0.985695
     3   C       3.944109
     4   C       3.944099
     5   C       3.944099
     6   H       0.984648
     7   H       0.984639
     8   H       0.984639
     9   H       0.983642
    10   H       0.983642
    11   H       0.983651
    12   H       0.983635
    13   H       0.983635
    14   H       0.983651

 Total charge composition:

   CEN ATOM         s          p       ELECTRONS ->P.CHARGE
     1   C       2.95492    3.12194      6.07686   -0.07686
     2   H       0.88040                 0.88040    0.11960
     3   C       3.02601    3.36794      6.39395   -0.39395
     4   C       3.02601    3.36796      6.39397   -0.39397
     5   C       3.02601    3.36796      6.39397   -0.39397
     6   H       0.87610                 0.87610    0.12390
     7   H       0.87606                 0.87606    0.12394
     8   H       0.87606                 0.87606    0.12394
     9   H       0.87210                 0.87210    0.12790
    10   H       0.87210                 0.87210    0.12790
    11   H       0.87214                 0.87214    0.12786
    12   H       0.87207                 0.87207    0.12793
    13   H       0.87207                 0.87207    0.12793
    14   H       0.87214                 0.87214    0.12786

 Total charge composition, AO contributions:

   CEN ATOM SHL      SPHERICAL COMPONENTS
     1   C  1s       1.99175
     1   C  2s       0.96317
     1   C  2p       1.00660    1.00661    1.10873

     2   H  1s       0.88040

     3   C  1s       1.99116
     3   C  2s       1.03485
     3   C  2p       1.06509    1.15720    1.14565

     4   C  1s       1.99116
     4   C  2s       1.03485
     4   C  2p       1.13419    1.08808    1.14569

     5   C  1s       1.99116
     5   C  2s       1.03485
     5   C  2p       1.13419    1.08808    1.14569

     6   H  1s       0.87610

     7   H  1s       0.87606

     8   H  1s       0.87606

     9   H  1s       0.87210

    10   H  1s       0.87210

    11   H  1s       0.87214

    12   H  1s       0.87207

    13   H  1s       0.87207

    14   H  1s       0.87214

 Summary of localized orbital composition:   [THRPRINT= 0.020]

   ORB  GRP  ORB.ENERGY      CENTERS/CHARGES
     1   1    -9.807202      C  1   2.000
     2   1    -9.781610      C  3   2.000
     3   1    -9.781587      C  5   2.000
     4   1    -9.781587      C  4   2.000
     5   1    -0.494506      C  3   1.005   C  1   0.977
     6   1    -0.494497      C  5   1.005   C  1   0.977
     7   1    -0.494497      C  4   1.005   C  1   0.977
     8   1    -0.436520      C  3   1.126   H  9   0.865
     9   1    -0.436520      C  3   1.126   H 10   0.865
    10   1    -0.436513      C  4   1.126   H 11   0.865
    11   1    -0.436513      C  5   1.126   H 14   0.865
    12   1    -0.436505      C  5   1.126   H 13   0.865
    13   1    -0.436505      C  4   1.126   H 12   0.865
    14   1    -0.435874      C  3   1.122   H  6   0.868
    15   1    -0.435854      C  4   1.123   H  7   0.868
    16   1    -0.435854      C  5   1.123   H  8   0.868
    17   1    -0.431279      C  1   1.101   H  2   0.867   (other: 0.032)

 Localized orbitals saved to record      2100.2  (orbital set 2)


 **********************************************************************************************************************************
 DATASETS  * FILE   NREC   LENGTH (MB)   RECORD NAMES
              1      20       89.03       500      610      700      900      950      970     1000      129      960     1100   
                                          VAR    BASINP    GEOM    SYMINP    ZMAT    AOBASIS   BASIS     P2S    ABASIS      S 
                                         1400     1410     1200     1210     1080     1600     1650     1300     1700     1800   
                                           T        V       H0       H01     AOSYM     SMH    MOLCAS    ERIS     OPER     GRID   

              2       5        3.31       700     1000      520     1800     2100   
                                         GEOM     BASIS   MCVARS    GRID      RKS  

 PROGRAMS   *        TOTAL      IBBA        KS       INT
 CPU TIMES  *        12.50      0.03      9.68      2.65
 REAL TIME  *        14.19 SEC
 DISK USED  *       280.45 MB      
 **********************************************************************************************************************************
 Molecular orbitals read from record     2100.2  Type=RKS/LOCAL(IBO)  
 Occupation numbers read from record     2100.2  Type=RKS/LOCAL(IBO)  
 Orbital energies read from record       2100.2  Type=RKS/LOCAL(IBO)  
 Redundancy group numbers read from rec  2100.2  Type=RKS/LOCAL(IBO)  

 IBBA/SVP energy=      0.000000000000

        KS-SCF  
   -158.28428951
 **********************************************************************************************************************************
 Molpro calculation terminated
