
 Primary working directories    : /local
 Secondary working directories  : /local
 Wavefunction directory         : /local/
 Main file repository           : /local/

 SHA1      : b4a5b34a9e711420743f49e6833241d17c61fb3c
 NAME      : 2099.9.b4a5b34
 ARCHNAME  : linux/x86_64_openmp
 FC        : /cm/shared/languages/GCC-6.1/bin/gfortran
 BLASLIB   : -lblas
 id        : simonbennie

 Nodes     nprocs
 node36-007    1

 Using customized tuning parameters: mindgm=1; mindgv=20; mindgc=4; mindgr=1; noblas=0; minvec=7
 default implementation of scratch files=df  

 memory,500,m
 geomtyp=xyz
 nosym
 noorient
 geometry={
 C         -1.53233        0.02247        0.00000
 C         -0.00192        0.01421        0.00000
 O          0.37239        1.40356        0.00000
 H          1.34248        1.44036        0.00000
 H         -1.92991       -0.99819        0.00000
 H         -1.90797        0.54382       -0.88653
 H         -1.90797        0.54382        0.88653
 C          0.54303       -0.66466       -1.26580
 C          0.54303       -0.66466        1.26580
 H          0.17836       -0.14752       -2.15943
 H          0.17836       -0.14752        2.15943
 H          0.23752       -1.71600       -1.32280
 H          0.23752       -1.71600        1.32280
 H          1.64084       -0.63767       -1.28032
 H          1.64084       -0.63767        1.28032
 }
 basis={ default,qzvp }
 {ks,B,direct;wf,42,1,0}
 {ibba,bonds=1}

 Variables initialized (895), CPU time= 0.01 sec
 Commands  initialized (725), CPU time= 0.01 sec, 591 directives.
 Default parameters read. Elapsed time= 0.17 sec

 Checking input...
 Passed
1


                                         ***  PROGRAM SYSTEM MOLPRO  ***
                                       Copyright, TTI GmbH Stuttgart, 2015
                                    Version 2099.9 linked May 26 2017 16:03:21


 **********************************************************************************************************************************
 LABEL *                                                                                 
  64 bit serial version                                                                  DATE: 12-Jun-17          TIME: 18:41:51  
 **********************************************************************************************************************************

 SHA1:             b4a5b34a9e711420743f49e6833241d17c61fb3c
 **********************************************************************************************************************************
 SETTING GEOMTYP        =    XYZ

 Variable memory set to  500000000 words,  buffer space 

 ZSYMEL=NOSYM

 SETTING BASIS          =    QZVP


 Recomputing integrals since basis changed


 Using spherical harmonics

 Library entry C      S def2-QZVP            selected for orbital group  1
 Library entry C      P def2-QZVP            selected for orbital group  1
 Library entry C      D def2-QZVP            selected for orbital group  1
 Library entry C      F def2-QZVP            selected for orbital group  1
 Library entry C      G def2-QZVP            selected for orbital group  1
 Library entry O      S def2-QZVP            selected for orbital group  2
 Library entry O      P def2-QZVP            selected for orbital group  2
 Library entry O      D def2-QZVP            selected for orbital group  2
 Library entry O      F def2-QZVP            selected for orbital group  2
 Library entry O      G def2-QZVP            selected for orbital group  2
 Library entry H      S def2-QZVP            selected for orbital group  3
 Library entry H      P def2-QZVP            selected for orbital group  3
 Library entry H      D def2-QZVP            selected for orbital group  3
 Library entry H      F def2-QZVP            selected for orbital group  3


 PROGRAM * SEWARD (Integral evaluation for generally contracted gaussian basis sets)     Author: Roland Lindh, 1990

 Geometry written to block  1 of record 700


 Point group  C1  



 ATOMIC COORDINATES

 NR  ATOM    CHARGE       X              Y              Z

   1  C       6.00   -2.895684032    0.042462146    0.000000000
   2  C       6.00   -0.003628274    0.026853008    0.000000000
   3  O       8.00    0.703715112    2.652343999    0.000000000
   4  H       1.00    2.536919528    2.721885921    0.000000000
   5  H       1.00   -3.647001345   -1.886305720    0.000000000
   6  H       1.00   -3.605540754    1.027670861   -1.675298901
   7  H       1.00   -3.605540754    1.027670861    1.675298901
   8  C       6.00    1.026177977   -1.256025366   -2.392015328
   9  C       6.00    1.026177977   -1.256025366    2.392015328
  10  H       1.00    0.337051552   -0.278772398   -4.080731285
  11  H       1.00    0.337051552   -0.278772398    4.080731285
  12  H       1.00    0.448847749   -3.242770030   -2.499729718
  13  H       1.00    0.448847749   -3.242770030    2.499729718
  14  H       1.00    3.100738214   -1.205021658   -2.419454152
  15  H       1.00    3.100738214   -1.205021658    2.419454152

 Bond lengths in Bohr (Angstrom)

 1-2  2.892097881  1-5  2.069933136  1-6  2.069096224  1-7  2.069096224  2-3  2.719106031
     ( 1.530432290)     ( 1.095361444)     ( 1.094918569)     ( 1.094918569)     ( 1.438888946)

  2- 8  2.903104402   2- 9  2.903104402   3- 4  1.834522965   8-10  2.069222119   8-12  2.071730422
       ( 1.536256691)       ( 1.536256691)       ( 0.970787746)       ( 1.094985190)       ( 1.096312526)

  8-14  2.075368508   9-11  2.069222119   9-13  2.071730422   9-15  2.075368508
       ( 1.098237719)       ( 1.094985190)       ( 1.096312526)       ( 1.098237719)

 Bond angles

  1-2-3  104.76902697   1-2-8  110.92255387   1-2-9  110.92255387   2-1-5  110.97328220

  2- 1- 6  110.22090701   2- 1- 7  110.22090701   2- 3- 4  107.25071562   2- 8-10  110.21836376

  2- 8-12  111.57747468   2- 8-14  110.77023896   2- 9-11  110.21836376   2- 9-13  111.57747468

  2- 9-15  110.77023896   3- 2- 8  109.53648747   3- 2- 9  109.53648747   5- 1- 6  108.61190457

  5- 1- 7  108.61190457   6- 1- 7  108.12870271   8- 2- 9  110.96453384  10- 8-12  108.52192632

 10- 8-14  108.08997829  11- 9-13  108.52192632  11- 9-15  108.08997829  12- 8-14  107.54424578

 13- 9-15  107.54424578

 NUCLEAR CHARGE:                   42
 NUMBER OF PRIMITIVE AOS:         840
 NUMBER OF SYMMETRY AOS:          715
 NUMBER OF CONTRACTIONS:          585   ( 585A   )
 NUMBER OF CORE ORBITALS:           5   (   5A   )
 NUMBER OF VALENCE ORBITALS:       30   (  30A   )


 NUCLEAR REPULSION ENERGY  198.77359127


 Eigenvalues of metric

         1 0.447E-04 0.459E-04 0.470E-04 0.743E-04 0.823E-04 0.917E-04 0.943E-04 0.107E-03


 Contracted 2-electron integrals neglected if value below      1.0D-12
 AO integral compression algorithm  1   Integral accuracy      1.0D-12

     40752.906 MB (compressed) written to integral file ( 33.4%)


 NUMBER OF SORTED TWO-ELECTRON INTEGRALS:14689922715.     BUFFER LENGTH:  32768
 NUMBER OF SEGMENTS: 184  SEGMENT LENGTH:   79999773      RECORD LENGTH: 262144

 Memory used in sort:      80.29 MW

 SORT1 READ 15248138275. AND WROTE 10587813328. INTEGRALS IN  60679 RECORDS. CPU TIME:   185.95 SEC, REAL TIME:  4135.98 SEC
 SORT2 READ 10587813328. AND WROTE 14689922715. INTEGRALS IN 155460 RECORDS. CPU TIME:   337.97 SEC, REAL TIME:  4884.79 SEC

 FILE SIZES:   FILE 1: 40795.6 MBYTE,  FILE 4:127253.1 MBYTE,   TOTAL: 168048.8 MBYTE

 OPERATOR DM      FOR CENTER  0  COORDINATES:    0.000000    0.000000    0.000000


 **********************************************************************************************************************************
 DATASETS  * FILE   NREC   LENGTH (MB)   RECORD NAMES
              1      19    37754.71       500      610      700      900      950      970     1000      129      960     1100   
                                          VAR    BASINP    GEOM    SYMINP    ZMAT    AOBASIS   BASIS     P2S    ABASIS      S 
                                         1400     1410     1200     1210     1080     1600     1650     1300     1700   
                                           T        V       H0       H01     AOSYM     SMH    MOLCAS    ERIS     OPER   

 PROGRAMS   *        TOTAL       INT
 CPU TIMES  *      1145.98   1145.83
 REAL TIME  *      9748.84 SEC
 DISK USED  *       168.05 GB      
 **********************************************************************************************************************************

 Density functional group B=B88
 Functional: B88(Automatically generated (new) B88)                            Gradient terms: 1
 Use grid at  1800.2

 Functional: B88                       Factor:  1.0000

 Generated new metagrid on record  1800.2 with target accuracy 1.0D-06 and 58228 points in CPU time    1.5
 Computed new grid on record 1800.1 in CPU time    1.7
  469144 words reserved for DFT integration

 PROGRAM * RKS-SCF (Restricted closed shell Kohn-Sham)     Authors: W. Meyer, H.-J. Werner, P.J. Knowles, 1993

 NUMBER OF ELECTRONS:      21+   21-    SPACE SYMMETRY=1    SPIN SYMMETRY: Singlet 
 CONVERGENCE THRESHOLDS:    1.00E-05 (Density)    1.00E-06 (Energy)
 MAX. NUMBER OF ITERATIONS:       60
 INTERPOLATION TYPE:            DIIS
 INTERPOLATION STEPS:              2 (START)      1 (STEP)
 LEVEL SHIFTS:                  0.00 (CLOSED)  0.00 (OPEN) 



 Use fine grid record 1800.2 for energy threshold  1.0D-06
 Orbital guess generated from atomic densities. Full valence occupancy:   21

 Molecular orbital dump at record        2100.2

 Initial occupancy:  21

 ITERATION    DDIFF          GRAD             ENERGY        2-EL.EN.            DIPOLE MOMENTS         DIIS   ORB.
    1      0.000D+00      0.000D+00      -231.98914713    639.538002    0.69217   -0.76278    0.00000    0    start
    2      0.000D+00      0.513D-02      -231.29225404    584.839976   -0.75669    0.41683    0.00000    1    diag
    3      0.241D-01      0.909D-02      -232.27879065    623.489371    0.42176   -0.74921    0.00000    2    diag
    4      0.234D-01      0.143D-02      -232.29580559    621.053473    0.32445   -0.38042    0.00000    3    diag
    5      0.765D-03      0.558D-03      -232.29839003    620.666644    0.31367   -0.51760    0.00000    4    diag
    6      0.178D-03      0.187D-03      -232.29872247    620.936119    0.31836   -0.48596    0.00000    5    diag
    7      0.530D-04      0.543D-04      -232.29874778    620.932347    0.32222   -0.48560    0.00000    6    diag
    8      0.133D-04      0.706D-05      -232.29874838    620.954790    0.32128   -0.49054    0.00000    7    diag
    9      0.528D-05      0.205D-05      -232.29874836    620.953298    0.32211   -0.48752    0.00000    0    orth

 Final occupancy:  21

 !RKS STATE 1.1 Energy               -232.298748359560
 Nuclear energy                       198.77359127
 One-electron energy                 -708.99958333
 Two-electron energy                  310.47664912
 Density functional                   -32.54940542     B88=-32.54940542
 Virial quotient                       -0.99831124
 !RKS STATE 1.1 Dipole moment           0.32210723    -0.48752188     0.00000000
 Dipole moment /Debye                   0.81866128    -1.23907585     0.00000000

 Orbital energies:

         1.1          2.1          3.1          4.1          5.1          6.1          7.1          8.1          9.1         10.1
    -18.735372    -9.932452    -9.868145    -9.868144    -9.863668    -0.892434    -0.677938    -0.589189    -0.588462    -0.477806

        11.1         12.1         13.1         14.1         15.1         16.1         17.1         18.1         19.1         20.1
     -0.404640    -0.369488    -0.366967    -0.333481    -0.320589    -0.305105    -0.292323    -0.279662    -0.273901    -0.246068

        21.1         22.1         23.1
     -0.193265     0.011114     0.045641

 HOMO     21.1    -0.193265 =      -5.2590eV
 LUMO     22.1     0.011114 =       0.3024eV
 LUMO-HOMO         0.204379 =       5.5614eV


 **********************************************************************************************************************************
 DATASETS  * FILE   NREC   LENGTH (MB)   RECORD NAMES
              1      20    37756.57       500      610      700      900      950      970     1000      129      960     1100   
                                          VAR    BASINP    GEOM    SYMINP    ZMAT    AOBASIS   BASIS     P2S    ABASIS      S 
                                         1400     1410     1200     1210     1080     1600     1650     1300     1700     1800   
                                           T        V       H0       H01     AOSYM     SMH    MOLCAS    ERIS     OPER     GRID   

              2       5        9.95       700     1000      520     1800     2100   
                                         GEOM     BASIS   MCVARS    GRID      RKS  

 PROGRAMS   *        TOTAL        KS       INT
 CPU TIMES  *      2097.76    951.78   1145.83
 REAL TIME  *     13857.70 SEC
 DISK USED  *       168.05 GB      
 **********************************************************************************************************************************


 PROGRAM * Intrinsic Basis Bonding Analysis (IBBA)          Author: G. Knizia

 Molecular orbitals read from record     2100.2  Type=RKS/CANONICAL (state 1.1)
 Fock matrix read from record            2100.2  Type=RKS/TOTAL (state 1.1)
 Orbital energies read from record       2100.2  Type=RKS/CANONICAL (state 1.1)
 Density matrix read from record         2100.2  Type=RKS/CHARGE (state 1.1)

 Number of core orbitals:           5 (   5 )
 Number of closed-shell orbitals:  16 (  16 )

 Basis set MINAO-AUTO-PP generated.      Number of basis functions:   35 

 Polarized AO type:                A = (O Ot + (1-O)(1-Ot)) P12
 Orthogonalization method:         Symmetric (Loewdin)
 Localization functional:          L = sum[A,i] <i|n_A|i>^4 -> max

 Localization group 1:  21 orbitals, occupancy  2.000
 Iterative localization: IB/PM,    7 iter; Final gradient 0.16E-08

 Bond order analysis:       [THRPRINT= 0.020]

   CEN ATOM   CEN ATOM     WIBERG.BO      RENORM.BO
     1   C  -   2   C       0.995919       0.994722
     1   C  -   5   H       0.964793       0.986029
     1   C  -   6   H       0.960236       0.979763
     1   C  -   7   H       0.960236       0.979763

     2   C  -   1   C       0.995919       0.994722
     2   C  -   9   C       0.994705       0.975437
     2   C  -   8   C       0.994705       0.975437
     2   C  -   3   O       0.934801       0.948929

     3   O  -   2   C       0.934801       0.948929
     3   O  -   4   H       0.867128       0.973147
     3   O  -   9   C       0.030022       0.015335
     3   O  -   8   C       0.030022       0.015335

     4   H  -   3   O       0.867128       0.973147

     5   H  -   1   C       0.964793       0.986029

     6   H  -   1   C       0.960236       0.979763

     7   H  -   1   C       0.960236       0.979763

     8   C  -   2   C       0.994705       0.975437
     8   C  -  14   H       0.963940       0.980661
     8   C  -  10   H       0.960762       0.979558
     8   C  -  12   H       0.959987       0.978655
     8   C  -   3   O       0.030022       0.015335

     9   C  -   2   C       0.994705       0.975437
     9   C  -  15   H       0.963940       0.980661
     9   C  -  11   H       0.960762       0.979558
     9   C  -  13   H       0.959987       0.978655
     9   C  -   3   O       0.030022       0.015335

    10   H  -   8   C       0.960762       0.979558

    11   H  -   9   C       0.960762       0.979558

    12   H  -   8   C       0.959987       0.978655

    13   H  -   9   C       0.959987       0.978655

    14   H  -   8   C       0.963940       0.980661

    15   H  -   9   C       0.963940       0.980661


 Valency analysis:

   CEN ATOM   TOT.VALENCE
     1   C       3.945208
     2   C       3.930425
     3   O       1.935544
     4   H       0.889059
     5   H       0.984479
     6   H       0.982204
     7   H       0.982204
     8   C       3.947476
     9   C       3.947476
    10   H       0.982233
    11   H       0.982233
    12   H       0.983955
    13   H       0.983955
    14   H       0.985887
    15   H       0.985887

 Total charge composition:

   CEN ATOM         s          p       ELECTRONS ->P.CHARGE
     1   C       3.03918    3.34601      6.38519   -0.38519
     2   C       2.94004    2.80051      5.74055    0.25945
     3   O       3.65127    4.90635      8.55762   -0.55762
     4   H       0.66692                 0.66692    0.33308
     5   H       0.87542                 0.87542    0.12458
     6   H       0.86660                 0.86660    0.13340
     7   H       0.86660                 0.86660    0.13340
     8   C       3.04660    3.35272      6.39932   -0.39932
     9   C       3.04660    3.35272      6.39932   -0.39932
    10   H       0.86671                 0.86671    0.13329
    11   H       0.86671                 0.86671    0.13329
    12   H       0.87333                 0.87333    0.12667
    13   H       0.87333                 0.87333    0.12667
    14   H       0.88120                 0.88120    0.11880
    15   H       0.88120                 0.88120    0.11880

 Total charge composition, AO contributions:

   CEN ATOM SHL      SPHERICAL COMPONENTS
     1   C  1s       1.99141
     1   C  2s       1.04777
     1   C  2p       1.03355    1.14994    1.16253

     2   C  1s       1.99300
     2   C  2s       0.94704
     2   C  2p       1.00551    0.78585    1.00915

     3   O  1s       1.99720
     3   O  2s       1.65407
     3   O  2p       1.46356    1.49121    1.95158

     4   H  1s       0.66692

     5   H  1s       0.87542

     6   H  1s       0.86660

     7   H  1s       0.86660

     8   C  1s       1.99151
     8   C  2s       1.05509
     8   C  2p       1.13323    1.13285    1.08664

     9   C  1s       1.99151
     9   C  2s       1.05509
     9   C  2p       1.13323    1.13285    1.08664

    10   H  1s       0.86671

    11   H  1s       0.86671

    12   H  1s       0.87333

    13   H  1s       0.87333

    14   H  1s       0.88120

    15   H  1s       0.88120

 Summary of localized orbital composition:   [THRPRINT= 0.020]

   ORB  GRP  ORB.ENERGY      CENTERS/CHARGES
     1   1   -18.581580      O  3   2.000
     2   1    -9.842902      C  2   2.000
     3   1    -9.756561      C  8   2.000
     4   1    -9.756561      C  9   2.000
     5   1    -9.751353      C  1   2.000
     6   1    -0.659548      O  3   1.336   H  4   0.654
     7   1    -0.621407      O  3   1.285   C  2   0.695
     8   1    -0.484233      C  8   1.008   C  2   0.976
     9   1    -0.484233      C  9   1.008   C  2   0.976
    10   1    -0.483986      C  1   0.991   C  2   0.984   (other: 0.025)
    11   1    -0.476547      O  3   1.980
    12   1    -0.422124      C  9   1.123   H 13   0.863
    13   1    -0.422124      C  8   1.123   H 12   0.863
    14   1    -0.420419      C  8   1.114   H 14   0.874
    15   1    -0.420419      C  9   1.114   H 15   0.874
    16   1    -0.418306      C  1   1.118   H  5   0.868
    17   1    -0.416407      C  9   1.131   H 11   0.858
    18   1    -0.416407      C  8   1.131   H 10   0.858
    19   1    -0.412211      C  1   1.130   H  6   0.858
    20   1    -0.412211      C  1   1.130   H  7   0.858
    21   1    -0.219558      O  3   1.952   (other: 0.048)

 Localized orbitals saved to record      2100.2  (orbital set 2)


 **********************************************************************************************************************************
 DATASETS  * FILE   NREC   LENGTH (MB)   RECORD NAMES
              1      20    37756.57       500      610      700      900      950      970     1000      129      960     1100   
                                          VAR    BASINP    GEOM    SYMINP    ZMAT    AOBASIS   BASIS     P2S    ABASIS      S 
                                         1400     1410     1200     1210     1080     1600     1650     1300     1700     1800   
                                           T        V       H0       H01     AOSYM     SMH    MOLCAS    ERIS     OPER     GRID   

              2       5       12.70       700     1000      520     1800     2100   
                                         GEOM     BASIS   MCVARS    GRID      RKS  

 PROGRAMS   *        TOTAL      IBBA        KS       INT
 CPU TIMES  *      2098.22      0.46    951.78   1145.83
 REAL TIME  *     13858.63 SEC
 DISK USED  *       168.05 GB      
 **********************************************************************************************************************************
 Molecular orbitals read from record     2100.2  Type=RKS/LOCAL(IBO)  
 Occupation numbers read from record     2100.2  Type=RKS/LOCAL(IBO)  
 Orbital energies read from record       2100.2  Type=RKS/LOCAL(IBO)  
 Redundancy group numbers read from rec  2100.2  Type=RKS/LOCAL(IBO)  

 IBBA/QZVP energy=      0.000000000000

        KS-SCF  
   -232.29874836
 **********************************************************************************************************************************
 Molpro calculation terminated
