
 Primary working directories    : /local
 Secondary working directories  : /local
 Wavefunction directory         : /local/
 Main file repository           : /local/

 SHA1      : b4a5b34a9e711420743f49e6833241d17c61fb3c
 NAME      : 2099.9.b4a5b34
 ARCHNAME  : linux/x86_64_openmp
 FC        : /cm/shared/languages/GCC-6.1/bin/gfortran
 BLASLIB   : -lblas
 id        : simonbennie

 Nodes     nprocs
 node46-012    1

 Using customized tuning parameters: mindgm=1; mindgv=20; mindgc=4; mindgr=1; noblas=0; minvec=7
 default implementation of scratch files=df  

 memory,500,m
 geomtyp=xyz
 nosym
 noorient
 geometry={
 C         -1.53233        0.02247        0.00000
 C         -0.00192        0.01421        0.00000
 O          0.37239        1.40356        0.00000
 H          1.34248        1.44036        0.00000
 H         -1.92991       -0.99819        0.00000
 H         -1.90797        0.54382       -0.88653
 H         -1.90797        0.54382        0.88653
 C          0.54303       -0.66466       -1.26580
 C          0.54303       -0.66466        1.26580
 H          0.17836       -0.14752       -2.15943
 H          0.17836       -0.14752        2.15943
 H          0.23752       -1.71600       -1.32280
 H          0.23752       -1.71600        1.32280
 H          1.64084       -0.63767       -1.28032
 H          1.64084       -0.63767        1.28032
 }
 basis={ default,avtz }
 {uks,MM05-2X,direct;wf,42,1,0}
 {ibba,bonds=1}

 Variables initialized (895), CPU time= 0.01 sec
 Commands  initialized (725), CPU time= 0.01 sec, 591 directives.
 Default parameters read. Elapsed time= 3.89 sec

 Checking input...
 Passed
1


                                         ***  PROGRAM SYSTEM MOLPRO  ***
                                       Copyright, TTI GmbH Stuttgart, 2015
                                    Version 2099.9 linked May 26 2017 16:03:21


 **********************************************************************************************************************************
 LABEL *                                                                                 
  64 bit serial version                                                                  DATE: 12-Jun-17          TIME: 15:17:56  
 **********************************************************************************************************************************

 SHA1:             b4a5b34a9e711420743f49e6833241d17c61fb3c
 **********************************************************************************************************************************
 SETTING GEOMTYP        =    XYZ

 Variable memory set to  500000000 words,  buffer space 

 ZSYMEL=NOSYM

 SETTING BASIS          =    AVTZ


 Recomputing integrals since basis changed


 Using spherical harmonics

 Library entry C      S aug-cc-pVTZ          selected for orbital group  1
 Library entry C      P aug-cc-pVTZ          selected for orbital group  1
 Library entry C      D aug-cc-pVTZ          selected for orbital group  1
 Library entry C      F aug-cc-pVTZ          selected for orbital group  1
 Library entry O      S aug-cc-pVTZ          selected for orbital group  2
 Library entry O      P aug-cc-pVTZ          selected for orbital group  2
 Library entry O      D aug-cc-pVTZ          selected for orbital group  2
 Library entry O      F aug-cc-pVTZ          selected for orbital group  2
 Library entry H      S aug-cc-pVTZ          selected for orbital group  3
 Library entry H      P aug-cc-pVTZ          selected for orbital group  3
 Library entry H      D aug-cc-pVTZ          selected for orbital group  3


 PROGRAM * SEWARD (Integral evaluation for generally contracted gaussian basis sets)     Author: Roland Lindh, 1990

 Geometry written to block  1 of record 700


 Point group  C1  



 ATOMIC COORDINATES

 NR  ATOM    CHARGE       X              Y              Z

   1  C       6.00   -2.895684032    0.042462146    0.000000000
   2  C       6.00   -0.003628274    0.026853008    0.000000000
   3  O       8.00    0.703715112    2.652343999    0.000000000
   4  H       1.00    2.536919528    2.721885921    0.000000000
   5  H       1.00   -3.647001345   -1.886305720    0.000000000
   6  H       1.00   -3.605540754    1.027670861   -1.675298901
   7  H       1.00   -3.605540754    1.027670861    1.675298901
   8  C       6.00    1.026177977   -1.256025366   -2.392015328
   9  C       6.00    1.026177977   -1.256025366    2.392015328
  10  H       1.00    0.337051552   -0.278772398   -4.080731285
  11  H       1.00    0.337051552   -0.278772398    4.080731285
  12  H       1.00    0.448847749   -3.242770030   -2.499729718
  13  H       1.00    0.448847749   -3.242770030    2.499729718
  14  H       1.00    3.100738214   -1.205021658   -2.419454152
  15  H       1.00    3.100738214   -1.205021658    2.419454152

 Bond lengths in Bohr (Angstrom)

 1-2  2.892097881  1-5  2.069933136  1-6  2.069096224  1-7  2.069096224  2-3  2.719106031
     ( 1.530432290)     ( 1.095361444)     ( 1.094918569)     ( 1.094918569)     ( 1.438888946)

  2- 8  2.903104402   2- 9  2.903104402   3- 4  1.834522965   8-10  2.069222119   8-12  2.071730422
       ( 1.536256691)       ( 1.536256691)       ( 0.970787746)       ( 1.094985190)       ( 1.096312526)

  8-14  2.075368508   9-11  2.069222119   9-13  2.071730422   9-15  2.075368508
       ( 1.098237719)       ( 1.094985190)       ( 1.096312526)       ( 1.098237719)

 Bond angles

  1-2-3  104.76902697   1-2-8  110.92255387   1-2-9  110.92255387   2-1-5  110.97328220

  2- 1- 6  110.22090701   2- 1- 7  110.22090701   2- 3- 4  107.25071562   2- 8-10  110.21836376

  2- 8-12  111.57747468   2- 8-14  110.77023896   2- 9-11  110.21836376   2- 9-13  111.57747468

  2- 9-15  110.77023896   3- 2- 8  109.53648747   3- 2- 9  109.53648747   5- 1- 6  108.61190457

  5- 1- 7  108.61190457   6- 1- 7  108.12870271   8- 2- 9  110.96453384  10- 8-12  108.52192632

 10- 8-14  108.08997829  11- 9-13  108.52192632  11- 9-15  108.08997829  12- 8-14  107.54424578

 13- 9-15  107.54424578

 NUCLEAR CHARGE:                   42
 NUMBER OF PRIMITIVE AOS:         605
 NUMBER OF SYMMETRY AOS:          540
 NUMBER OF CONTRACTIONS:          460   ( 460A   )
 NUMBER OF CORE ORBITALS:           5   (   5A   )
 NUMBER OF VALENCE ORBITALS:       30   (  30A   )


 NUCLEAR REPULSION ENERGY  198.77359127


 Eigenvalues of metric

         1 0.351E-05 0.596E-05 0.770E-05 0.977E-05 0.161E-04 0.173E-04 0.207E-04 0.297E-04


 Contracted 2-electron integrals neglected if value below      1.0D-12
 AO integral compression algorithm  1   Integral accuracy      1.0D-12

     24892.932 MB (compressed) written to integral file ( 51.7%)


 NUMBER OF SORTED TWO-ELECTRON INTEGRALS: 5621233465.     BUFFER LENGTH:  32768
 NUMBER OF SEGMENTS: 176  SEGMENT LENGTH:   31999951      RECORD LENGTH: 131072

 Memory used in sort:      32.16 MW

 SORT1 READ  6020115514. AND WROTE  5366777799. INTEGRALS IN  61513 RECORDS. CPU TIME:    82.19 SEC, REAL TIME:   839.84 SEC
 SORT2 READ  5366777799. AND WROTE  5621233465. INTEGRALS IN  94959 RECORDS. CPU TIME:   124.27 SEC, REAL TIME:  1268.86 SEC

 FILE SIZES:   FILE 1: 24930.9 MBYTE,  FILE 4: 64501.1 MBYTE,   TOTAL:  89432.0 MBYTE

 OPERATOR DM      FOR CENTER  0  COORDINATES:    0.000000    0.000000    0.000000


 **********************************************************************************************************************************
 DATASETS  * FILE   NREC   LENGTH (MB)   RECORD NAMES
              1      19    23757.53       500      610      700      900      950      970     1000      129      960     1100   
                                          VAR    BASINP    GEOM    SYMINP    ZMAT    AOBASIS   BASIS     P2S    ABASIS      S 
                                         1400     1410     1200     1210     1080     1600     1650     1300     1700   
                                           T        V       H0       H01     AOSYM     SMH    MOLCAS    ERIS     OPER   

 PROGRAMS   *        TOTAL       INT
 CPU TIMES  *       420.87    420.73
 REAL TIME  *      2427.22 SEC
 DISK USED  *        89.43 GB      
 **********************************************************************************************************************************

 Density functional group MM05-2X=M052XX+M052XC
 Functional: M052XX(Automatically generated (new) M052XX)                      Gradient terms: 2
 Functional: M052XC(Automatically generated (new) M052XC)                      Gradient terms: 2
 Use grid at  1800.2


 Exact exchange will be calculated, factor:  0.5600

 Functional: M052XX                    Factor:  0.4400
 Functional: M052XC                    Factor:  1.0000

 Generated new metagrid on record  1800.2 with target accuracy 1.0D-06 and 55396 points in CPU time    1.6
 Computed new grid on record 1800.1 in CPU time    1.8
  720844 words reserved for DFT integration

 PROGRAM * UKS-SCF (Unrestricted Kohn-Sham)     Authors: W. Meyer, H.-J. Werner, P.J. Knowles, 1993

 NUMBER OF ELECTRONS:      21+   21-    SPACE SYMMETRY=1    SPIN SYMMETRY: Singlet 
 CONVERGENCE THRESHOLDS:    1.00E-05 (Density)    1.00E-06 (Energy)
 MAX. NUMBER OF ITERATIONS:       60
 INTERPOLATION TYPE:            DIIS
 INTERPOLATION STEPS:              2 (START)      1 (STEP)
 LEVEL SHIFTS:                 -0.20 (ALPHA)  -0.20 (BETA) 



 Use fine grid record 1800.2 for energy threshold  1.0D-06
 Orbital guess generated from atomic densities. Full valence occupancy:   35

 Molecular orbital dump at record        2200.2

 Initial alpha occupation  21
 Initial beta  occupation  21

 ITERATION    DDIFF          GRAD             ENERGY        2-EL.EN.            DIPOLE MOMENTS         DIIS
    1      0.000D+00      0.000D+00      -233.59937053    595.327941    0.70540   -0.83797    0.00000    0
    2      0.595D-02      0.116D-02      -233.72017528    583.126003    0.31928   -0.53835    0.00000    1
    3      0.176D-02      0.467D-03      -233.73407511    585.656410    0.37007   -0.59114    0.00000    2
    4      0.621D-03      0.102D-03      -233.73565887    585.486699    0.35302   -0.55713    0.00000    3
    5      0.393D-03      0.504D-04      -233.73617042    585.445029    0.34554   -0.56402    0.00000    4
    6      0.194D-03      0.138D-04      -233.73623020    585.422250    0.34248   -0.56335    0.00000    5
    7      0.479D-04      0.271D-05      -233.73623289    585.417047    0.34189   -0.56480    0.00000    6
    8      0.124D-04      0.673D-06      -233.73623304    585.419034    0.34182   -0.56488    0.00000    6
    9      0.408D-05      0.275D-06      -233.73623306    585.418254    0.34171   -0.56492    0.00000    6
   10      0.114D-05      0.746D-07      -233.73623306    585.418210    0.34171   -0.56496    0.00000    7

 Final alpha occupancy:  21
 Final beta  occupancy:  21

 !UKS STATE 1.1 Energy               -233.736233058722
 Nuclear energy                       198.77359127
 One-electron energy                 -709.40473504
 Two-electron energy                  292.70910478
 Density functional                   -15.81419407     M052XX=-32.50362867 M052XC= -1.51259745
 Virial quotient                       -1.00674146
 !UKS STATE 1.1 Dipole moment           0.34170632    -0.56496204     0.00000000
 Dipole moment /Debye                   0.86847395    -1.43589623     0.00000000

 Orbital energies for positive spin:

         1.1          2.1          3.1          4.1          5.1          6.1          7.1          8.1          9.1         10.1
    -19.662229   -10.626976   -10.555814   -10.555800   -10.550013    -1.141600    -0.896625    -0.793795    -0.792539    -0.658091

        11.1         12.1         13.1         14.1         15.1         16.1         17.1         18.1         19.1         20.1
     -0.571820    -0.532569    -0.529345    -0.489320    -0.472356    -0.449531    -0.436578    -0.429033    -0.420183    -0.387437

        21.1         22.1         23.1
     -0.350323     0.019240     0.037140

 Orbital energies for negative spin:

         1.1          2.1          3.1          4.1          5.1          6.1          7.1          8.1          9.1         10.1
    -19.662229   -10.626976   -10.555814   -10.555800   -10.550013    -1.141600    -0.896625    -0.793795    -0.792539    -0.658091

        11.1         12.1         13.1         14.1         15.1         16.1         17.1         18.1         19.1         20.1
     -0.571820    -0.532569    -0.529345    -0.489320    -0.472356    -0.449531    -0.436578    -0.429033    -0.420183    -0.387437

        21.1         22.1         23.1
     -0.350323     0.019240     0.037140

 HOMO     21.1    -0.350323 =      -9.5328eV
 LUMO     22.1     0.019240 =       0.5236eV
 LUMO-HOMO         0.369563 =      10.0563eV

 EXPECTATION VALUE OF S**2:             0.00000000

 Natural orbitals saved to record    2200.2 (Orbital set 3)

 Orbital spaces for UNO-CAS (Min. occupation: 0.020  Max. occupation: 1.980):

 Closed:       21
 Active:        0


 **********************************************************************************************************************************
 DATASETS  * FILE   NREC   LENGTH (MB)   RECORD NAMES
              1      20    23759.30       500      610      700      900      950      970     1000      129      960     1100   
                                          VAR    BASINP    GEOM    SYMINP    ZMAT    AOBASIS   BASIS     P2S    ABASIS      S 
                                         1400     1410     1200     1210     1080     1600     1650     1300     1700     1800   
                                           T        V       H0       H01     AOSYM     SMH    MOLCAS    ERIS     OPER     GRID   

              2       5       11.56       700     1000      520     1800     2200   
                                         GEOM     BASIS   MCVARS    GRID      UKS  

 PROGRAMS   *        TOTAL       UKS       INT
 CPU TIMES  *      3043.00   2622.13    420.73
 REAL TIME  *      5147.38 SEC
 DISK USED  *        89.43 GB      
 **********************************************************************************************************************************


 PROGRAM * Intrinsic Basis Bonding Analysis (IBBA)          Author: G. Knizia

 Molecular orbitals read from record     2200.2  Type=UKS/ALPHA (state 1.1)
 Fock matrix read from record            2200.2  Type=UKS/TOTAL (state 1.1)
 Orbital energies read from record       2200.2  Type=UKS/ALPHA (state 1.1)
 Density matrix read from record         2200.2  Type=UKS/CHARGE (state 1.1)

 Number of core orbitals:           5 (   5 )
 Number of closed-shell orbitals:  16 (  16 )

 Basis set MINAO-AUTO-PP generated.      Number of basis functions:   35 

 Polarized AO type:                A = (O Ot + (1-O)(1-Ot)) P12
 Orthogonalization method:         Symmetric (Loewdin)
 Localization functional:          L = sum[A,i] <i|n_A|i>^4 -> max

 Localization group 1:  21 orbitals, occupancy  2.000
 Iterative localization: IB/PM,    7 iter; Final gradient 0.21E-08

 Bond order analysis:       [THRPRINT= 0.020]

   CEN ATOM   CEN ATOM     WIBERG.BO      RENORM.BO
     1   C  -   2   C       0.996167       0.993234
     1   C  -   5   H       0.963498       0.987779
     1   C  -   6   H       0.958544       0.983121
     1   C  -   7   H       0.958544       0.983121

     2   C  -   1   C       0.996167       0.993234
     2   C  -   9   C       0.995241       0.977248
     2   C  -   8   C       0.995241       0.977248
     2   C  -   3   O       0.930984       0.952049

     3   O  -   2   C       0.930984       0.952049
     3   O  -   4   H       0.860826       0.978415
     3   O  -   8   C       0.025398       0.013052
     3   O  -   9   C       0.025398       0.013052

     4   H  -   3   O       0.860826       0.978415

     5   H  -   1   C       0.963498       0.987779

     6   H  -   1   C       0.958544       0.983121

     7   H  -   1   C       0.958544       0.983121

     8   C  -   2   C       0.995241       0.977248
     8   C  -  14   H       0.963082       0.983665
     8   C  -  12   H       0.959785       0.984001
     8   C  -  10   H       0.958993       0.983024
     8   C  -   3   O       0.025398       0.013052

     9   C  -   2   C       0.995241       0.977248
     9   C  -  15   H       0.963082       0.983665
     9   C  -  13   H       0.959785       0.984001
     9   C  -  11   H       0.958993       0.983024
     9   C  -   3   O       0.025398       0.013052

    10   H  -   8   C       0.958993       0.983024

    11   H  -   9   C       0.958993       0.983024

    12   H  -   8   C       0.959785       0.984001

    13   H  -   9   C       0.959785       0.984001

    14   H  -   8   C       0.963082       0.983665

    15   H  -   9   C       0.963082       0.983665


 Valency analysis:

   CEN ATOM   TOT.VALENCE
     1   C       3.932740
     2   C       3.927970
     3   O       1.903551
     4   H       0.878680
     5   H       0.981492
     6   H       0.978280
     7   H       0.978280
     8   C       3.935548
     9   C       3.935548
    10   H       0.978237
    11   H       0.978237
    12   H       0.980237
    13   H       0.980237
    14   H       0.982800
    15   H       0.982800

 Total charge composition:

   CEN ATOM         s          p       ELECTRONS ->P.CHARGE
     1   C       3.03559    3.38518      6.42077   -0.42077
     2   C       2.93652    2.80821      5.74473    0.25527
     3   O       3.63374    4.95059      8.58433   -0.58433
     4   H       0.65169                 0.65169    0.34831
     5   H       0.86396                 0.86396    0.13604
     6   H       0.85262                 0.85262    0.14738
     7   H       0.85262                 0.85262    0.14738
     8   C       3.04105    3.39285      6.43390   -0.43390
     9   C       3.04105    3.39285      6.43390   -0.43390
    10   H       0.85248                 0.85248    0.14752
    11   H       0.85248                 0.85248    0.14752
    12   H       0.85942                 0.85942    0.14058
    13   H       0.85942                 0.85942    0.14058
    14   H       0.86885                 0.86885    0.13115
    15   H       0.86885                 0.86885    0.13115

 Total charge composition, AO contributions:

   CEN ATOM SHL      SPHERICAL COMPONENTS
     1   C  1s       1.99085
     1   C  2s       1.04474
     1   C  2p       1.03933    1.16602    1.17983

     2   C  1s       1.99251
     2   C  2s       0.94401
     2   C  2p       1.01110    0.78428    1.01283

     3   O  1s       1.99703
     3   O  2s       1.63672
     3   O  2p       1.48616    1.50360    1.96082

     4   H  1s       0.65169

     5   H  1s       0.86396

     6   H  1s       0.85262

     7   H  1s       0.85262

     8   C  1s       1.99095
     8   C  2s       1.05010
     8   C  2p       1.14789    1.14791    1.09704

     9   C  1s       1.99095
     9   C  2s       1.05010
     9   C  2p       1.14789    1.14791    1.09704

    10   H  1s       0.85248

    11   H  1s       0.85248

    12   H  1s       0.85942

    13   H  1s       0.85942

    14   H  1s       0.86885

    15   H  1s       0.86885

 Summary of localized orbital composition:   [THRPRINT= 0.020]

   ORB  GRP  ORB.ENERGY      CENTERS/CHARGES
     1   1   -19.498616      O  3   2.000
     2   1   -10.531678      C  2   2.000
     3   1   -10.437039      C  8   2.000
     4   1   -10.437039      C  9   2.000
     5   1   -10.430386      C  1   2.000
     6   1    -0.863860      O  3   1.350   H  4   0.641
     7   1    -0.819672      O  3   1.288   C  2   0.696
     8   1    -0.671940      O  3   1.983
     9   1    -0.657762      C  9   1.005   C  2   0.980
    10   1    -0.657762      C  8   1.005   C  2   0.980
    11   1    -0.656476      C  2   0.990   C  1   0.988   (other: 0.022)
    12   1    -0.587197      C  9   1.136   H 13   0.851
    13   1    -0.587197      C  8   1.136   H 12   0.851
    14   1    -0.585074      C  9   1.127   H 15   0.862
    15   1    -0.585074      C  8   1.127   H 14   0.862
    16   1    -0.582028      C  1   1.130   H  5   0.857
    17   1    -0.581539      C  9   1.145   H 11   0.845
    18   1    -0.581539      C  8   1.145   H 10   0.845
    19   1    -0.576642      C  1   1.144   H  6   0.845
    20   1    -0.576642      C  1   1.144   H  7   0.845
    21   1    -0.396865      O  3   1.961   (other: 0.039)

 Localized orbitals saved to record      2200.2  (orbital set 4)


 **********************************************************************************************************************************
 DATASETS  * FILE   NREC   LENGTH (MB)   RECORD NAMES
              1      20    23759.30       500      610      700      900      950      970     1000      129      960     1100   
                                          VAR    BASINP    GEOM    SYMINP    ZMAT    AOBASIS   BASIS     P2S    ABASIS      S 
                                         1400     1410     1200     1210     1080     1600     1650     1300     1700     1800   
                                           T        V       H0       H01     AOSYM     SMH    MOLCAS    ERIS     OPER     GRID   

              2       5       13.27       700     1000      520     1800     2200   
                                         GEOM     BASIS   MCVARS    GRID      UKS  

 PROGRAMS   *        TOTAL      IBBA       UKS       INT
 CPU TIMES  *      3043.27      0.27   2622.13    420.73
 REAL TIME  *      5147.84 SEC
 DISK USED  *        89.43 GB      
 **********************************************************************************************************************************
 Molecular orbitals read from record     2200.2  Type=UKS/LOCAL(IBO)  
 Occupation numbers read from record     2200.2  Type=UKS/LOCAL(IBO)  
 Orbital energies read from record       2200.2  Type=UKS/LOCAL(IBO)  
 Redundancy group numbers read from rec  2200.2  Type=UKS/BETA (state 1.1)

 IBBA/aug-cc-pVTZ energy=      0.000000000000

        UKS-SCF 
   -233.73623306
 **********************************************************************************************************************************
 Molpro calculation terminated
