
 Primary working directories    : /tmp/sb13343
 Secondary working directories  : /tmp/sb13343
 Wavefunction directory         : /panfs/panasas01/chem/sb13343/wfu/
 Main file repository           : /tmp/sb13343/

 SHA1      : b4a5b34a9e711420743f49e6833241d17c61fb3c
 NAME      : 2099.9.b4a5b34
 ARCHNAME  : linux/x86_64_openmp
 FC        : /cm/shared/languages/GCC-6.1/bin/gfortran
 BLASLIB   : -lblas
 id        : simonbennie

 Nodes     nprocs
 node32-038    1

 Using customized tuning parameters: mindgm=1; mindgv=20; mindgc=4; mindgr=1; noblas=0; minvec=7
 default implementation of scratch files=df  

 memory,500,m
 geomtyp=xyz
 nosym
 noorient
 geometry={
 C          0.00000        0.00000        0.00000
 C          0.00000        0.00000        1.53307
 O          1.40344        0.00000        1.86307
 C          1.76314        0.00000        3.22887
 H         -1.02289        0.00000       -0.39176
 H          0.51995       -0.88625       -0.37815
 H          0.51995        0.88625       -0.37815
 H          2.85677        0.00000        3.25413
 H          1.40708       -0.89217        3.76475
 H          1.40708        0.89217        3.76475
 C         -0.69252       -1.26694        2.06222
 C         -0.69252        1.26694        2.06222
 H         -0.15366       -2.16088        1.72982
 H         -0.15366        2.16088        1.72982
 H         -1.72011       -1.32515        1.68649
 H         -1.72011        1.32515        1.68649
 H         -0.74365       -1.28188        3.15638
 H         -0.74365        1.28188        3.15638
 }
 basis={ default,svp }
 {uks,MM06-L,direct;wf,50,1,0}
 {ibba,bonds=1}

 Variables initialized (895), CPU time= 0.00 sec
 Commands  initialized (725), CPU time= 0.02 sec, 591 directives.
 Default parameters read. Elapsed time= 0.08 sec

 Checking input...
 Passed
1


                                         ***  PROGRAM SYSTEM MOLPRO  ***
                                       Copyright, TTI GmbH Stuttgart, 2015
                                    Version 2099.9 linked May 26 2017 16:03:21


 **********************************************************************************************************************************
 LABEL *                                                                                 
  64 bit serial version                                                                  DATE: 09-Jun-17          TIME: 01:57:49  
 **********************************************************************************************************************************

 SHA1:             b4a5b34a9e711420743f49e6833241d17c61fb3c
 **********************************************************************************************************************************
 SETTING GEOMTYP        =    XYZ

 Variable memory set to  500000000 words,  buffer space 

 ZSYMEL=NOSYM

 SETTING BASIS          =    SVP


 Recomputing integrals since basis changed


 Using spherical harmonics

 Library entry C      S def2-SVP             selected for orbital group  1
 Library entry C      P def2-SVP             selected for orbital group  1
 Library entry C      D def2-SVP             selected for orbital group  1
 Library entry O      S def2-SVP             selected for orbital group  2
 Library entry O      P def2-SVP             selected for orbital group  2
 Library entry O      D def2-SVP             selected for orbital group  2
 Library entry H      S def2-SVP             selected for orbital group  4
 Library entry H      P def2-SVP             selected for orbital group  4


 PROGRAM * SEWARD (Integral evaluation for generally contracted gaussian basis sets)     Author: Roland Lindh, 1990

 Geometry written to block  1 of record 700


 Point group  C1  



 ATOMIC COORDINATES

 NR  ATOM    CHARGE       X              Y              Z

   1  C       6.00    0.000000000    0.000000000    0.000000000
   2  C       6.00    0.000000000    0.000000000    2.897082430
   3  O       8.00    2.652117232    0.000000000    3.520692051
   4  C       6.00    3.331851719    0.000000000    6.101679992
   5  H       1.00   -1.932981956    0.000000000   -0.740319107
   6  H       1.00    0.982563098   -1.674769778   -0.714599934
   7  H       1.00    0.982563098    1.674769778   -0.714599934
   8  H       1.00    5.398512901    0.000000000    6.149414474
   9  H       1.00    2.658995835   -1.685956957    7.114346427
  10  H       1.00    2.658995835    1.685956957    7.114346427
  11  C       6.00   -1.308673136   -2.394169616    3.897031009
  12  C       6.00   -1.308673136    2.394169616    3.897031009
  13  H       1.00   -0.290375316   -4.083471388    3.268886045
  14  H       1.00   -0.290375316    4.083471388    3.268886045
  15  H       1.00   -3.250536804   -2.504170574    3.187004212
  16  H       1.00   -3.250536804    2.504170574    3.187004212
  17  H       1.00   -1.405294833   -2.422402125    5.964693745
  18  H       1.00   -1.405294833    2.422402125    5.964693745

 Bond lengths in Bohr (Angstrom)

 1-2  2.897082430  1-5  2.069901355  1-6  2.069042560  1-7  2.069042560  2-3  2.724447609
     ( 1.533070000)     ( 1.095344626)     ( 1.094890171)     ( 1.094890171)     ( 1.441715587)

  2-11  2.905954351   2-12  2.905954351   3- 4  2.668995640   4- 8  2.067212379   4- 9  2.078624355
       ( 1.537764818)       ( 1.537764818)       ( 1.412371669)       ( 1.093921681)       ( 1.099960639)

  4-10  2.078624355  11-13  2.070081404  11-15  2.070524757  11-17  2.070111596  12-14  2.070081404
       ( 1.099960639)       ( 1.095439904)       ( 1.095674516)       ( 1.095455880)       ( 1.095439904)

 12-16  2.070524757  12-18  2.070111596
       ( 1.095674516)       ( 1.095455880)

 Bond angles

  1- 2- 3  103.23196371   1- 2-11  110.12706952   1- 2-12  110.12706952   2- 1- 5  110.95650426

  2- 1- 6  110.20481748   2- 1- 7  110.20481748   2- 3- 4  117.98647004   2-11-13  110.26679927

  2-11-15  110.37287188   2-11-17  112.08316935   2-12-14  110.26679927   2-12-16  110.37287188

  2-12-18  112.08316935   3- 2-11  111.07703285   3- 2-12  111.07703285   3- 4- 8  106.07765410

  3- 4- 9  112.87219182   3- 4-10  112.87219182   5- 1- 6  108.65976572   5- 1- 7  108.65976572

  6- 1- 7  108.08288210   8- 4- 9  108.20190897   8- 4-10  108.20190897   9- 4-10  108.40564999

 11- 2-12  110.95103964  13-11-15  108.29648994  13-11-17  108.35544687  14-12-16  108.29648994

 14-12-18  108.35544687  15-11-17  107.33851825  16-12-18  107.33851825

 NUCLEAR CHARGE:                   50
 NUMBER OF PRIMITIVE AOS:         234
 NUMBER OF SYMMETRY AOS:          228
 NUMBER OF CONTRACTIONS:          144   ( 144A   )
 NUMBER OF CORE ORBITALS:           6   (   6A   )
 NUMBER OF VALENCE ORBITALS:       36   (  36A   )


 NUCLEAR REPULSION ENERGY  270.15500869


 Eigenvalues of metric

         1 0.176E-02 0.508E-02 0.513E-02 0.102E-01 0.124E-01 0.215E-01 0.221E-01 0.252E-01


 Contracted 2-electron integrals neglected if value below      1.0D-11
 AO integral compression algorithm  1   Integral accuracy      1.0D-11

     186.384 MB (compressed) written to integral file ( 41.3%)


 NUMBER OF SORTED TWO-ELECTRON INTEGRALS:   54502020.     BUFFER LENGTH:  32768
 NUMBER OF SEGMENTS:   4  SEGMENT LENGTH:   15999503      RECORD LENGTH: 524288

 Memory used in sort:      16.56 MW

 SORT1 READ    56333432. AND WROTE    45703433. INTEGRALS IN    132 RECORDS. CPU TIME:     0.69 SEC, REAL TIME:     1.32 SEC
 SORT2 READ    45703433. AND WROTE    54502020. INTEGRALS IN    711 RECORDS. CPU TIME:     1.03 SEC, REAL TIME:     1.33 SEC

 FILE SIZES:   FILE 1:   217.4 MBYTE,  FILE 4:   553.7 MBYTE,   TOTAL:    771.1 MBYTE

 OPERATOR DM      FOR CENTER  0  COORDINATES:    0.000000    0.000000    0.000000


 **********************************************************************************************************************************
 DATASETS  * FILE   NREC   LENGTH (MB)   RECORD NAMES
              1      19      194.45       500      610      700      900      950      970     1000      129      960     1100   
                                          VAR    BASINP    GEOM    SYMINP    ZMAT    AOBASIS   BASIS     P2S    ABASIS      S 
                                         1400     1410     1200     1210     1080     1600     1650     1300     1700   
                                           T        V       H0       H01     AOSYM     SMH    MOLCAS    ERIS     OPER   

 PROGRAMS   *        TOTAL       INT
 CPU TIMES  *         6.86      6.71
 REAL TIME  *         9.24 SEC
 DISK USED  *       771.70 MB      
 **********************************************************************************************************************************

 Density functional group MM06-L=M06LX+M06LC
 Functional: M06LX(Automatically generated (new) M06LX)                        Gradient terms: 2
 Functional: M06LC(Automatically generated (new) M06LC)                        Gradient terms: 2
 Use grid at  1800.2

 Functional: M06LX                     Factor:  1.0000
 Functional: M06LC                     Factor:  1.0000

 Generated new metagrid on record  1800.2 with target accuracy 1.0D-06 and 66012 points in CPU time    1.8
 Computed new grid on record 1800.1 in CPU time    2.1
  228438 words reserved for DFT integration

 PROGRAM * UKS-SCF (Unrestricted Kohn-Sham)     Authors: W. Meyer, H.-J. Werner, P.J. Knowles, 1993

 NUMBER OF ELECTRONS:      25+   25-    SPACE SYMMETRY=1    SPIN SYMMETRY: Singlet 
 CONVERGENCE THRESHOLDS:    1.00E-05 (Density)    1.00E-06 (Energy)
 MAX. NUMBER OF ITERATIONS:       60
 INTERPOLATION TYPE:            DIIS
 INTERPOLATION STEPS:              2 (START)      1 (STEP)
 LEVEL SHIFTS:                 -0.20 (ALPHA)  -0.20 (BETA) 



 Use fine grid record 1800.2 for energy threshold  1.0D-06
 Orbital guess generated from atomic densities. Full valence occupancy:   25

 Molecular orbital dump at record        2200.2

 Initial alpha occupation  25
 Initial beta  occupation  25

 ITERATION    DDIFF          GRAD             ENERGY        2-EL.EN.            DIPOLE MOMENTS         DIIS
    1      0.000D+00      0.000D+00      -272.49626283    818.832243   -0.69133    0.00000    0.62523    0
    2      0.997D-02      0.453D-02      -272.69861540    796.175763   -0.34709    0.00000    0.21459    1
    3      0.307D-02      0.198D-02      -272.73260031    802.115198   -0.41282    0.00000    0.33182    2
    4      0.632D-03      0.262D-03      -272.73332659    801.719891   -0.37580    0.00000    0.30459    3
    5      0.374D-03      0.130D-03      -272.73356390    801.675070   -0.37867    0.00000    0.30828    4
    6      0.228D-03      0.374D-04      -272.73359831    801.637926   -0.37021    0.00000    0.30522    5
    7      0.484D-04      0.120D-04      -272.73360014    801.620227   -0.37155    0.00000    0.30518    6
    8      0.130D-04      0.608D-05      -272.73360054    801.627833   -0.37129    0.00000    0.30523    7
    9      0.375D-05      0.726D-06      -272.73360056    801.627157   -0.37107    0.00000    0.30503    6
   10      0.132D-05      0.244D-06      -272.73360056    801.627260   -0.37115    0.00000    0.30506    7

 Final alpha occupancy:  25
 Final beta  occupancy:  25

 !UKS STATE 1.1 Energy               -272.733600557221
 Nuclear energy                       270.15500869
 One-electron energy                 -903.52248239
 Two-electron energy                  400.81363003
 Density functional                   -40.17975690     M06LX=-38.38944223 M06LC= -1.79031466
 Virial quotient                       -1.01061231
 !UKS STATE 1.1 Dipole moment          -0.37115198     0.00000000     0.30506442
 Dipole moment /Debye                  -0.94331245     0.00000000     0.77534563

 Orbital energies for positive spin:

         1.1          2.1          3.1          4.1          5.1          6.1          7.1          8.1          9.1         10.1
    -18.956491   -10.113300   -10.096122   -10.050477   -10.050473   -10.044916    -0.977607    -0.749814    -0.649209    -0.644972

        11.1         12.1         13.1         14.1         15.1         16.1         17.1         18.1         19.1         20.1
     -0.622397    -0.505933    -0.444368    -0.421490    -0.417871    -0.390283    -0.373960    -0.361123    -0.346124    -0.337794

        21.1         22.1         23.1         24.1         25.1         26.1         27.1
     -0.329466    -0.308541    -0.307960    -0.260862    -0.213787     0.061478     0.084110

 Orbital energies for negative spin:

         1.1          2.1          3.1          4.1          5.1          6.1          7.1          8.1          9.1         10.1
    -18.956489   -10.113300   -10.096122   -10.050476   -10.050473   -10.044915    -0.977605    -0.749814    -0.649209    -0.644972

        11.1         12.1         13.1         14.1         15.1         16.1         17.1         18.1         19.1         20.1
     -0.622397    -0.505932    -0.444367    -0.421490    -0.417871    -0.390283    -0.373960    -0.361123    -0.346124    -0.337794

        21.1         22.1         23.1         24.1         25.1         26.1         27.1
     -0.329466    -0.308540    -0.307959    -0.260860    -0.213785     0.061479     0.084111

 HOMO    -25.1    -0.213785 =      -5.8174eV
 LUMO     26.1     0.061478 =       1.6729eV
 LUMO-HOMO         0.275263 =       7.4903eV

 EXPECTATION VALUE OF S**2:             0.00000000

 Occupation number threshold for canonical orbitals:  1.999000 (occupied),  0.001000 (virtual)

 Number of pseudo-canonical orbitals per symmetry:   25
 Number of active natural orbitals per symmetry:      0

 Natural orbitals saved to record    2200.2 (Orbital set 3)

 Orbital spaces for UNO-CAS (Min. occupation: 0.020  Max. occupation: 1.980):

 Closed:       25
 Active:        0


 **********************************************************************************************************************************
 DATASETS  * FILE   NREC   LENGTH (MB)   RECORD NAMES
              1      20      196.57       500      610      700      900      950      970     1000      129      960     1100   
                                          VAR    BASINP    GEOM    SYMINP    ZMAT    AOBASIS   BASIS     P2S    ABASIS      S 
                                         1400     1410     1200     1210     1080     1600     1650     1300     1700     1800   
                                           T        V       H0       H01     AOSYM     SMH    MOLCAS    ERIS     OPER     GRID   

              2       5        3.91       700     1000      520     1800     2200   
                                         GEOM     BASIS   MCVARS    GRID      UKS  

 PROGRAMS   *        TOTAL       UKS       INT
 CPU TIMES  *       134.86    128.00      6.71
 REAL TIME  *       138.81 SEC
 DISK USED  *       771.70 MB      
 **********************************************************************************************************************************


 PROGRAM * Intrinsic Basis Bonding Analysis (IBBA)          Author: G. Knizia

 Molecular orbitals read from record     2200.2  Type=UKS/ALPHA (state 1.1)
 Fock matrix read from record            2200.2  Type=UKS/TOTAL (state 1.1)
 Orbital energies read from record       2200.2  Type=UKS/ALPHA (state 1.1)
 Density matrix read from record         2200.2  Type=UKS/CHARGE (state 1.1)

 Number of core orbitals:           6 (   6 )
 Number of closed-shell orbitals:  19 (  19 )

 Basis set MINAO-AUTO-PP generated.      Number of basis functions:   42 

 Polarized AO type:                A = (O Ot + (1-O)(1-Ot)) P12
 Orthogonalization method:         Symmetric (Loewdin)
 Localization functional:          L = sum[A,i] <i|n_A|i>^4 -> max

 Localization group 1:  25 orbitals, occupancy  2.000
 Iterative localization: IB/PM,    7 iter; Final gradient 0.24E-08

 Bond order analysis:       [THRPRINT= 0.020]

   CEN ATOM   CEN ATOM     WIBERG.BO      RENORM.BO
     1   C  -   2   C       0.996670       0.995706
     1   C  -   5   H       0.965029       0.986131
     1   C  -   6   H       0.960879       0.981724
     1   C  -   7   H       0.960879       0.981724

     2   C  -   1   C       0.996670       0.995706
     2   C  -  12   C       0.992745       0.972580
     2   C  -  11   C       0.992745       0.972580
     2   C  -   3   O       0.919292       0.933418

     3   O  -   4   C       0.990926       1.016492
     3   O  -   2   C       0.919292       0.933418
     3   O  -   9   H       0.035683       0.021099
     3   O  -  10   H       0.035683       0.021099
     3   O  -  12   C       0.026448       0.013754
     3   O  -  11   C       0.026448       0.013754

     4   C  -   3   O       0.990926       1.016492
     4   C  -   8   H       0.955543       0.975833
     4   C  -   9   H       0.948434       0.933073
     4   C  -  10   H       0.948434       0.933073

     5   H  -   1   C       0.965029       0.986131

     6   H  -   1   C       0.960879       0.981724

     7   H  -   1   C       0.960879       0.981724

     8   H  -   4   C       0.955543       0.975833

     9   H  -   4   C       0.948434       0.933073
     9   H  -   3   O       0.035683       0.021099

    10   H  -   4   C       0.948434       0.933073
    10   H  -   3   O       0.035683       0.021099

    11   C  -   2   C       0.992745       0.972580
    11   C  -  17   H       0.963430       0.981180
    11   C  -  13   H       0.961196       0.981543
    11   C  -  15   H       0.961121       0.986107
    11   C  -   3   O       0.026448       0.013754

    12   C  -   2   C       0.992745       0.972580
    12   C  -  18   H       0.963430       0.981180
    12   C  -  14   H       0.961196       0.981543
    12   C  -  16   H       0.961121       0.986107
    12   C  -   3   O       0.026448       0.013754

    13   H  -  11   C       0.961196       0.981543

    14   H  -  12   C       0.961196       0.981543

    15   H  -  11   C       0.961121       0.986107

    16   H  -  12   C       0.961121       0.986107

    17   H  -  11   C       0.963430       0.981180

    18   H  -  12   C       0.963430       0.981180


 Valency analysis:

   CEN ATOM   TOT.VALENCE
     1   C       3.943140
     2   C       3.930897
     3   O       2.103617
     4   C       3.868064
     5   H       0.983949
     6   H       0.981276
     7   H       0.981276
     8   H       0.977560
     9   H       0.988266
    10   H       0.988266
    11   C       3.943188
    12   C       3.943188
    13   H       0.981615
    14   H       0.981615
    15   H       0.981901
    16   H       0.981901
    17   H       0.984077
    18   H       0.984077

 Total charge composition:

   CEN ATOM         s          p       ELECTRONS ->P.CHARGE
     1   C       3.03989    3.35898      6.39886   -0.39886
     2   C       2.93214    2.79954      5.73168    0.26832
     3   O       3.62421    4.78696      8.41117   -0.41117
     4   C       3.02786    3.15601      6.18387   -0.18387
     5   H       0.87331                 0.87331    0.12669
     6   H       0.86316                 0.86316    0.13684
     7   H       0.86316                 0.86316    0.13684
     8   H       0.85020                 0.85020    0.14980
     9   H       0.89168                 0.89168    0.10832
    10   H       0.89168                 0.89168    0.10832
    11   C       3.03990    3.37702      6.41692   -0.41692
    12   C       3.03990    3.37702      6.41692   -0.41692
    13   H       0.86441                 0.86441    0.13559
    14   H       0.86441                 0.86441    0.13559
    15   H       0.86547                 0.86547    0.13453
    16   H       0.86547                 0.86547    0.13453
    17   H       0.87382                 0.87382    0.12618
    18   H       0.87382                 0.87382    0.12618

 Total charge composition, AO contributions:

   CEN ATOM SHL      SPHERICAL COMPONENTS
     1   C  1s       1.99077
     1   C  2s       1.04912
     1   C  2p       1.15081    1.16309    1.04508

     2   C  1s       1.99253
     2   C  2s       0.93962
     2   C  2p       0.78567    1.00795    1.00592

     3   O  1s       1.99720
     3   O  2s       1.62701
     3   O  2p       1.43620    1.90636    1.44440

     4   C  1s       1.99145
     4   C  2s       1.03641
     4   C  2p       1.15340    1.15992    0.84269

     5   H  1s       0.87331

     6   H  1s       0.86316

     7   H  1s       0.86316

     8   H  1s       0.85020

     9   H  1s       0.89168

    10   H  1s       0.89168

    11   C  1s       1.99082
    11   C  2s       1.04908
    11   C  2p       1.13809    1.09532    1.14361

    12   C  1s       1.99082
    12   C  2s       1.04908
    12   C  2p       1.13809    1.09532    1.14361

    13   H  1s       0.86441

    14   H  1s       0.86441

    15   H  1s       0.86547

    16   H  1s       0.86547

    17   H  1s       0.87382

    18   H  1s       0.87382

 Summary of localized orbital composition:   [THRPRINT= 0.020]

   ORB  GRP  ORB.ENERGY      CENTERS/CHARGES
     1   1   -18.807153      O  3   2.000
     2   1   -10.022805      C  2   2.000
     3   1    -9.986014      C  4   2.000
     4   1    -9.935692      C 12   2.000
     5   1    -9.935692      C 11   2.000
     6   1    -9.929411      C  1   2.000
     7   1    -0.710699      O  3   1.254   C  4   0.737
     8   1    -0.688614      O  3   1.285   C  2   0.689   (other: 0.026)
     9   1    -0.537039      C 11   1.012   C  2   0.972
    10   1    -0.537039      C 12   1.012   C  2   0.972
    11   1    -0.534155      C  1   0.996   C  2   0.981   (other: 0.023)
    12   1    -0.520506      O  3   1.961   (other: 0.039)
    13   1    -0.477409      C  4   1.128   H  9   0.870
    14   1    -0.477409      C  4   1.128   H 10   0.870
    15   1    -0.474953      C  4   1.148   H  8   0.843
    16   1    -0.465573      C 11   1.127   H 15   0.857
    17   1    -0.465573      C 12   1.127   H 16   0.857
    18   1    -0.463183      C 12   1.123   H 18   0.866
    19   1    -0.463183      C 11   1.123   H 17   0.866
    20   1    -0.461502      C  1   1.121   H  5   0.866
    21   1    -0.458308      C 11   1.133   H 13   0.856
    22   1    -0.458308      C 12   1.133   H 14   0.856
    23   1    -0.453091      C  1   1.134   H  7   0.855
    24   1    -0.453091      C  1   1.134   H  6   0.855
    25   1    -0.258961      O  3   1.906   C  4   0.020   (other: 0.074)

 Localized orbitals saved to record      2200.2  (orbital set 4)


 **********************************************************************************************************************************
 DATASETS  * FILE   NREC   LENGTH (MB)   RECORD NAMES
              1      20      196.57       500      610      700      900      950      970     1000      129      960     1100   
                                          VAR    BASINP    GEOM    SYMINP    ZMAT    AOBASIS   BASIS     P2S    ABASIS      S 
                                         1400     1410     1200     1210     1080     1600     1650     1300     1700     1800   
                                           T        V       H0       H01     AOSYM     SMH    MOLCAS    ERIS     OPER     GRID   

              2       5        4.08       700     1000      520     1800     2200   
                                         GEOM     BASIS   MCVARS    GRID      UKS  

 PROGRAMS   *        TOTAL      IBBA       UKS       INT
 CPU TIMES  *       134.91      0.05    128.00      6.71
 REAL TIME  *       138.98 SEC
 DISK USED  *       771.70 MB      
 **********************************************************************************************************************************
 Molecular orbitals read from record     2200.2  Type=UKS/LOCAL(IBO)  
 Occupation numbers read from record     2200.2  Type=UKS/LOCAL(IBO)  
 Orbital energies read from record       2200.2  Type=UKS/LOCAL(IBO)  
 Redundancy group numbers read from rec  2200.2  Type=UKS/BETA (state 1.1)

 IBBA/SVP energy=      0.000000000000

        UKS-SCF 
   -272.73360056
 **********************************************************************************************************************************
 Molpro calculation terminated
