
 Primary working directories    : /tmp/sb13343
 Secondary working directories  : /tmp/sb13343
 Wavefunction directory         : /panfs/panasas01/chem/sb13343/wfu/
 Main file repository           : /tmp/sb13343/

 SHA1      : b4a5b34a9e711420743f49e6833241d17c61fb3c
 NAME      : 2099.9.b4a5b34
 ARCHNAME  : linux/x86_64_openmp
 FC        : /cm/shared/languages/GCC-6.1/bin/gfortran
 BLASLIB   : -lblas
 id        : simonbennie

 Nodes     nprocs
 node32-036    1

 Using customized tuning parameters: mindgm=1; mindgv=20; mindgc=4; mindgr=1; noblas=0; minvec=7
 default implementation of scratch files=df  

 memory,500,m
 geomtyp=xyz
 nosym
 noorient
 geometry={
 C          0.00000        0.00000        0.00000
 C          0.00000        0.00000        1.53307
 O          1.40344        0.00000        1.86307
 C          1.76314        0.00000        3.22887
 H         -1.02289        0.00000       -0.39176
 H          0.51995       -0.88625       -0.37815
 H          0.51995        0.88625       -0.37815
 H          2.85677        0.00000        3.25413
 H          1.40708       -0.89217        3.76475
 H          1.40708        0.89217        3.76475
 C         -0.69252       -1.26694        2.06222
 C         -0.69252        1.26694        2.06222
 H         -0.15366       -2.16088        1.72982
 H         -0.15366        2.16088        1.72982
 H         -1.72011       -1.32515        1.68649
 H         -1.72011        1.32515        1.68649
 H         -0.74365       -1.28188        3.15638
 H         -0.74365        1.28188        3.15638
 }
 basis={ default,sto-3g }
 {ks,B-VWN,direct;wf,50,1,0}
 {ibba,bonds=1}

 Variables initialized (895), CPU time= 0.00 sec
 Commands  initialized (725), CPU time= 0.01 sec, 591 directives.
 Default parameters read. Elapsed time= 0.08 sec

 Checking input...
 Passed
1


                                         ***  PROGRAM SYSTEM MOLPRO  ***
                                       Copyright, TTI GmbH Stuttgart, 2015
                                    Version 2099.9 linked May 26 2017 16:03:21


 **********************************************************************************************************************************
 LABEL *                                                                                 
  64 bit serial version                                                                  DATE: 09-Jun-17          TIME: 01:30:37  
 **********************************************************************************************************************************

 SHA1:             b4a5b34a9e711420743f49e6833241d17c61fb3c
 **********************************************************************************************************************************
 SETTING GEOMTYP        =    XYZ

 Variable memory set to  500000000 words,  buffer space 

 ZSYMEL=NOSYM

 SETTING BASIS          =    STO-3G


 Recomputing integrals since basis changed


 Using spherical harmonics

 Library entry C      S STO-3G               selected for orbital group  1
 Library entry C      P STO-3G               selected for orbital group  1
 Library entry O      S STO-3G               selected for orbital group  2
 Library entry O      P STO-3G               selected for orbital group  2
 Library entry H      S STO-3G               selected for orbital group  4


 PROGRAM * SEWARD (Integral evaluation for generally contracted gaussian basis sets)     Author: Roland Lindh, 1990

 Geometry written to block  1 of record 700


 Point group  C1  



 ATOMIC COORDINATES

 NR  ATOM    CHARGE       X              Y              Z

   1  C       6.00    0.000000000    0.000000000    0.000000000
   2  C       6.00    0.000000000    0.000000000    2.897082430
   3  O       8.00    2.652117232    0.000000000    3.520692051
   4  C       6.00    3.331851719    0.000000000    6.101679992
   5  H       1.00   -1.932981956    0.000000000   -0.740319107
   6  H       1.00    0.982563098   -1.674769778   -0.714599934
   7  H       1.00    0.982563098    1.674769778   -0.714599934
   8  H       1.00    5.398512901    0.000000000    6.149414474
   9  H       1.00    2.658995835   -1.685956957    7.114346427
  10  H       1.00    2.658995835    1.685956957    7.114346427
  11  C       6.00   -1.308673136   -2.394169616    3.897031009
  12  C       6.00   -1.308673136    2.394169616    3.897031009
  13  H       1.00   -0.290375316   -4.083471388    3.268886045
  14  H       1.00   -0.290375316    4.083471388    3.268886045
  15  H       1.00   -3.250536804   -2.504170574    3.187004212
  16  H       1.00   -3.250536804    2.504170574    3.187004212
  17  H       1.00   -1.405294833   -2.422402125    5.964693745
  18  H       1.00   -1.405294833    2.422402125    5.964693745

 Bond lengths in Bohr (Angstrom)

 1-2  2.897082430  1-5  2.069901355  1-6  2.069042560  1-7  2.069042560  2-3  2.724447609
     ( 1.533070000)     ( 1.095344626)     ( 1.094890171)     ( 1.094890171)     ( 1.441715587)

  2-11  2.905954351   2-12  2.905954351   3- 4  2.668995640   4- 8  2.067212379   4- 9  2.078624355
       ( 1.537764818)       ( 1.537764818)       ( 1.412371669)       ( 1.093921681)       ( 1.099960639)

  4-10  2.078624355  11-13  2.070081404  11-15  2.070524757  11-17  2.070111596  12-14  2.070081404
       ( 1.099960639)       ( 1.095439904)       ( 1.095674516)       ( 1.095455880)       ( 1.095439904)

 12-16  2.070524757  12-18  2.070111596
       ( 1.095674516)       ( 1.095455880)

 Bond angles

  1- 2- 3  103.23196371   1- 2-11  110.12706952   1- 2-12  110.12706952   2- 1- 5  110.95650426

  2- 1- 6  110.20481748   2- 1- 7  110.20481748   2- 3- 4  117.98647004   2-11-13  110.26679927

  2-11-15  110.37287188   2-11-17  112.08316935   2-12-14  110.26679927   2-12-16  110.37287188

  2-12-18  112.08316935   3- 2-11  111.07703285   3- 2-12  111.07703285   3- 4- 8  106.07765410

  3- 4- 9  112.87219182   3- 4-10  112.87219182   5- 1- 6  108.65976572   5- 1- 7  108.65976572

  6- 1- 7  108.08288210   8- 4- 9  108.20190897   8- 4-10  108.20190897   9- 4-10  108.40564999

 11- 2-12  110.95103964  13-11-15  108.29648994  13-11-17  108.35544687  14-12-16  108.29648994

 14-12-18  108.35544687  15-11-17  107.33851825  16-12-18  107.33851825

 NUCLEAR CHARGE:                   50
 NUMBER OF PRIMITIVE AOS:         126
 NUMBER OF SYMMETRY AOS:          126
 NUMBER OF CONTRACTIONS:           42   (  42A   )
 NUMBER OF CORE ORBITALS:           6   (   6A   )
 NUMBER OF VALENCE ORBITALS:       36   (  36A   )


 NUCLEAR REPULSION ENERGY  270.15500869


 Eigenvalues of metric

         1 0.207E+00 0.226E+00 0.228E+00 0.234E+00 0.307E+00 0.355E+00 0.359E+00 0.362E+00


 Contracted 2-electron integrals neglected if value below      1.0D-11
 AO integral compression algorithm  1   Integral accuracy      1.0D-11

     2.884 MB (compressed) written to integral file ( 84.3%)


 NUMBER OF SORTED TWO-ELECTRON INTEGRALS:     408156.     BUFFER LENGTH:  32768
 NUMBER OF SEGMENTS:   1  SEGMENT LENGTH:     408156      RECORD LENGTH: 524288

 Memory used in sort:       0.97 MW

 SORT1 READ      453477. AND WROTE      382834. INTEGRALS IN      2 RECORDS. CPU TIME:     0.01 SEC, REAL TIME:     0.02 SEC
 SORT2 READ      382834. AND WROTE      408156. INTEGRALS IN     11 RECORDS. CPU TIME:     0.03 SEC, REAL TIME:     0.04 SEC

 FILE SIZES:   FILE 1:    33.2 MBYTE,  FILE 4:     8.4 MBYTE,   TOTAL:     41.6 MBYTE

 OPERATOR DM      FOR CENTER  0  COORDINATES:    0.000000    0.000000    0.000000


 **********************************************************************************************************************************
 DATASETS  * FILE   NREC   LENGTH (MB)   RECORD NAMES
              1      19       31.98       500      610      700      900      950      970     1000      129      960     1100   
                                          VAR    BASINP    GEOM    SYMINP    ZMAT    AOBASIS   BASIS     P2S    ABASIS      S 
                                         1400     1410     1200     1210     1080     1600     1650     1300     1700   
                                           T        V       H0       H01     AOSYM     SMH    MOLCAS    ERIS     OPER   

 PROGRAMS   *        TOTAL       INT
 CPU TIMES  *         0.79      0.65
 REAL TIME  *         1.14 SEC
 DISK USED  *        42.19 MB      
 **********************************************************************************************************************************

 Density functional group B-VWN=B88+VWN5
 Functional: B88(Automatically generated (new) B88)                            Gradient terms: 1
 Functional: VWN5(Automatically generated (new) VWN5)                          Gradient terms: 0
 Use grid at  1800.2

 Functional: B88                       Factor:  1.0000
 Functional: VWN5                      Factor:  1.0000

 Generated new metagrid on record  1800.2 with target accuracy 1.0D-06 and 66012 points in CPU time    1.9
 Computed new grid on record 1800.1 in CPU time    2.2
   38106 words reserved for DFT integration

 PROGRAM * RKS-SCF (Restricted closed shell Kohn-Sham)     Authors: W. Meyer, H.-J. Werner, P.J. Knowles, 1993

 NUMBER OF ELECTRONS:      25+   25-    SPACE SYMMETRY=1    SPIN SYMMETRY: Singlet 
 CONVERGENCE THRESHOLDS:    1.00E-05 (Density)    1.00E-06 (Energy)
 MAX. NUMBER OF ITERATIONS:       60
 INTERPOLATION TYPE:            DIIS
 INTERPOLATION STEPS:              2 (START)      1 (STEP)
 LEVEL SHIFTS:                  0.00 (CLOSED)  0.00 (OPEN) 



 Use fine grid record 1800.2 for energy threshold  1.0D-06
 Orbital guess generated from atomic densities. Full valence occupancy:   25

 Molecular orbital dump at record        2100.2

 Initial occupancy:  25

 ITERATION    DDIFF          GRAD             ENERGY        2-EL.EN.            DIPOLE MOMENTS         DIIS   ORB.
    1      0.000D+00      0.000D+00      -270.49783525    824.039014   -0.91009    0.00000    0.83488    0    start
    2      0.000D+00      0.266D-01      -270.44034247    783.047188    0.26122   -0.00000   -1.13497    1    diag
    3      0.993D-01      0.289D-01      -270.91549002    802.906198   -0.43512    0.00000    0.41519    2    diag
    4      0.542D-01      0.411D-02      -270.92284925    803.236031   -0.24795    0.00000    0.17046    3    diag
    5      0.895D-02      0.166D-02      -270.92418607    803.162878   -0.33263    0.00000    0.19576    4    diag
    6      0.272D-02      0.280D-03      -270.92422925    803.151670   -0.31821    0.00000    0.20242    5    diag
    7      0.557D-03      0.506D-04      -270.92423067    803.154122   -0.31987    0.00000    0.20602    6    diag
    8      0.960D-04      0.787D-05      -270.92423070    803.155121   -0.32000    0.00000    0.20584    7    diag
    9      0.174D-04      0.258D-05      -270.92423071    803.155022   -0.31992    0.00000    0.20572    8    diag
   10      0.468D-05      0.192D-06      -270.92423071    803.155149   -0.31994    0.00000    0.20575    0    orth

 Final occupancy:  25

 !RKS STATE 1.1 Energy               -270.924230707772
 Nuclear energy                       270.15500869
 One-electron energy                 -901.03877319
 Two-electron energy                  401.57757454
 Density functional                   -41.61804075     B88=-38.45414329 VWN5= -3.16389746
 Virial quotient                       -1.02175775
 !RKS STATE 1.1 Dipole moment          -0.31993592     0.00000000     0.20574959
 Dipole moment /Debye                  -0.81314273     0.00000000     0.52292904

 Orbital energies:

         1.1          2.1          3.1          4.1          5.1          6.1          7.1          8.1          9.1         10.1
    -18.569261    -9.853782    -9.832509    -9.790831    -9.789436    -9.789358    -0.883566    -0.694873    -0.606059    -0.603608

        11.1         12.1         13.1         14.1         15.1         16.1         17.1         18.1         19.1         20.1
     -0.580616    -0.462758    -0.403631    -0.382339    -0.378282    -0.361492    -0.343376    -0.328710    -0.319741    -0.305941

        21.1         22.1         23.1         24.1         25.1         26.1         27.1
     -0.303644    -0.274237    -0.269497    -0.155697    -0.090044     0.211540     0.290520

 HOMO     25.1    -0.090044 =      -2.4502eV
 LUMO     26.1     0.211540 =       5.7563eV
 LUMO-HOMO         0.301584 =       8.2065eV


 **********************************************************************************************************************************
 DATASETS  * FILE   NREC   LENGTH (MB)   RECORD NAMES
              1      20       34.09       500      610      700      900      950      970     1000      129      960     1100   
                                          VAR    BASINP    GEOM    SYMINP    ZMAT    AOBASIS   BASIS     P2S    ABASIS      S 
                                         1400     1410     1200     1210     1080     1600     1650     1300     1700     1800   
                                           T        V       H0       H01     AOSYM     SMH    MOLCAS    ERIS     OPER     GRID   

              2       5        3.09       700     1000      520     1800     2100   
                                         GEOM     BASIS   MCVARS    GRID      RKS  

 PROGRAMS   *        TOTAL        KS       INT
 CPU TIMES  *         7.41      6.62      0.65
 REAL TIME  *         8.27 SEC
 DISK USED  *        42.19 MB      
 **********************************************************************************************************************************


 PROGRAM * Intrinsic Basis Bonding Analysis (IBBA)          Author: G. Knizia

 Molecular orbitals read from record     2100.2  Type=RKS/CANONICAL (state 1.1)
 Fock matrix read from record            2100.2  Type=RKS/TOTAL (state 1.1)
 Orbital energies read from record       2100.2  Type=RKS/CANONICAL (state 1.1)
 Density matrix read from record         2100.2  Type=RKS/CHARGE (state 1.1)

 Number of core orbitals:           6 (   6 )
 Number of closed-shell orbitals:  19 (  19 )

 Basis set MINAO-AUTO-PP generated.      Number of basis functions:   42 

 Polarized AO type:                A = (O Ot + (1-O)(1-Ot)) P12
 Orthogonalization method:         Symmetric (Loewdin)
 Localization functional:          L = sum[A,i] <i|n_A|i>^4 -> max

 Localization group 1:  25 orbitals, occupancy  2.000
 Iterative localization: IB/PM,    7 iter; Final gradient 0.48E-08

 Bond order analysis:       [THRPRINT= 0.020]

   CEN ATOM   CEN ATOM     WIBERG.BO      RENORM.BO
     1   C  -   2   C       0.990147       0.987686
     1   C  -   5   H       0.967519       0.989519
     1   C  -   6   H       0.964625       0.986803
     1   C  -   7   H       0.964625       0.986803

     2   C  -   1   C       0.990147       0.987686
     2   C  -  12   C       0.985535       0.960245
     2   C  -  11   C       0.985535       0.960245
     2   C  -   3   O       0.978402       0.961060

     3   O  -   4   C       1.024550       1.016536
     3   O  -   2   C       0.978402       0.961060
     3   O  -   9   H       0.032868       0.019409
     3   O  -  10   H       0.032868       0.019409
     3   O  -  11   C       0.027565       0.014589
     3   O  -  12   C       0.027565       0.014589

     4   C  -   3   O       1.024550       1.016536
     4   C  -   8   H       0.955011       0.972835
     4   C  -   9   H       0.951655       0.939931
     4   C  -  10   H       0.951655       0.939931

     5   H  -   1   C       0.967519       0.989519

     6   H  -   1   C       0.964625       0.986803

     7   H  -   1   C       0.964625       0.986803

     8   H  -   4   C       0.955011       0.972835

     9   H  -   4   C       0.951655       0.939931
     9   H  -   3   O       0.032868       0.019409

    10   H  -   4   C       0.951655       0.939931
    10   H  -   3   O       0.032868       0.019409

    11   C  -   2   C       0.985535       0.960245
    11   C  -  17   H       0.966445       0.985542
    11   C  -  13   H       0.965254       0.986579
    11   C  -  15   H       0.965186       0.988940
    11   C  -   3   O       0.027565       0.014589

    12   C  -   2   C       0.985535       0.960245
    12   C  -  18   H       0.966445       0.985542
    12   C  -  14   H       0.965254       0.986579
    12   C  -  16   H       0.965186       0.988940
    12   C  -   3   O       0.027565       0.014589

    13   H  -  11   C       0.965254       0.986579

    14   H  -  12   C       0.965254       0.986579

    15   H  -  11   C       0.965186       0.988940

    16   H  -  12   C       0.965186       0.988940

    17   H  -  11   C       0.966445       0.985542

    18   H  -  12   C       0.966445       0.985542


 Valency analysis:

   CEN ATOM   TOT.VALENCE
     1   C       3.938320
     2   C       3.969536
     3   O       2.182190
     4   C       3.906244
     5   H       0.984100
     6   H       0.982481
     7   H       0.982481
     8   H       0.981672
     9   H       0.988840
    10   H       0.988840
    11   C       3.939784
    12   C       3.939784
    13   H       0.983202
    14   H       0.983202
    15   H       0.983303
    16   H       0.983303
    17   H       0.984849
    18   H       0.984849

 Total charge composition:

   CEN ATOM         s          p       ELECTRONS ->P.CHARGE
     1   C       3.00024    3.37741      6.37765   -0.37765
     2   C       2.95037    2.92415      5.87452    0.12548
     3   O       3.66479    4.55593      8.22071   -0.22071
     4   C       3.00455    3.24219      6.24675   -0.24675
     5   H       0.87390                 0.87390    0.12610
     6   H       0.86764                 0.86764    0.13236
     7   H       0.86764                 0.86764    0.13236
     8   H       0.86462                 0.86462    0.13538
     9   H       0.89436                 0.89436    0.10564
    10   H       0.89436                 0.89436    0.10564
    11   C       3.00094    3.38990      6.39083   -0.39083
    12   C       3.00094    3.38990      6.39083   -0.39083
    13   H       0.87039                 0.87039    0.12961
    14   H       0.87039                 0.87039    0.12961
    15   H       0.87078                 0.87078    0.12922
    16   H       0.87078                 0.87078    0.12922
    17   H       0.87691                 0.87691    0.12309
    18   H       0.87691                 0.87691    0.12309

 Total charge composition, AO contributions:

   CEN ATOM SHL      SPHERICAL COMPONENTS
     1   C  1s       1.99196
     1   C  2s       1.00828
     1   C  2p       1.16155    1.16997    1.04589

     2   C  1s       1.99339
     2   C  2s       0.95699
     2   C  2p       0.86371    1.03115    1.02929

     3   O  1s       1.99745
     3   O  2s       1.66733
     3   O  2p       1.31590    1.90511    1.33492

     4   C  1s       1.99251
     4   C  2s       1.01205
     4   C  2p       1.16036    1.17098    0.91086

     5   H  1s       0.87390

     6   H  1s       0.86764

     7   H  1s       0.86764

     8   H  1s       0.86462

     9   H  1s       0.89436

    10   H  1s       0.89436

    11   C  1s       1.99202
    11   C  2s       1.00892
    11   C  2p       1.14456    1.09556    1.14977

    12   C  1s       1.99202
    12   C  2s       1.00892
    12   C  2p       1.14456    1.09556    1.14977

    13   H  1s       0.87039

    14   H  1s       0.87039

    15   H  1s       0.87078

    16   H  1s       0.87078

    17   H  1s       0.87691

    18   H  1s       0.87691

 Summary of localized orbital composition:   [THRPRINT= 0.020]

   ORB  GRP  ORB.ENERGY      CENTERS/CHARGES
     1   1   -18.410212      O  3   2.000
     2   1    -9.762854      C  2   2.000
     3   1    -9.727245      C  4   2.000
     4   1    -9.680808      C  1   2.000
     5   1    -9.680044      C 12   2.000
     6   1    -9.680044      C 11   2.000
     7   1    -0.608972      O  3   1.166   C  4   0.825
     8   1    -0.575256      O  3   1.174   C  2   0.801   (other: 0.026)
     9   1    -0.485324      C  2   0.995   C  1   0.982   (other: 0.023)
    10   1    -0.484767      C 11   0.995   C  2   0.991
    11   1    -0.484767      C 12   0.995   C  2   0.991
    12   1    -0.448580      C  4   1.135   H  8   0.855
    13   1    -0.447212      C  4   1.124   H 10   0.875
    14   1    -0.447212      C  4   1.124   H  9   0.875
    15   1    -0.444691      O  3   1.967   (other: 0.033)
    16   1    -0.434085      C  1   1.122   H  5   0.867
    17   1    -0.433731      C 12   1.121   H 18   0.870
    18   1    -0.433731      C 11   1.121   H 17   0.870
    19   1    -0.433600      C 11   1.125   H 15   0.863
    20   1    -0.433600      C 12   1.125   H 16   0.863
    21   1    -0.430245      C 12   1.127   H 14   0.864
    22   1    -0.430245      C 11   1.127   H 13   0.864
    23   1    -0.427708      C  1   1.130   H  6   0.861
    24   1    -0.427708      C  1   1.130   H  7   0.861
    25   1    -0.120650      O  3   1.905   C  2   0.022   (other: 0.073)

 Localized orbitals saved to record      2100.2  (orbital set 2)


 **********************************************************************************************************************************
 DATASETS  * FILE   NREC   LENGTH (MB)   RECORD NAMES
              1      20       34.09       500      610      700      900      950      970     1000      129      960     1100   
                                          VAR    BASINP    GEOM    SYMINP    ZMAT    AOBASIS   BASIS     P2S    ABASIS      S 
                                         1400     1410     1200     1210     1080     1600     1650     1300     1700     1800   
                                           T        V       H0       H01     AOSYM     SMH    MOLCAS    ERIS     OPER     GRID   

              2       5        3.11       700     1000      520     1800     2100   
                                         GEOM     BASIS   MCVARS    GRID      RKS  

 PROGRAMS   *        TOTAL      IBBA        KS       INT
 CPU TIMES  *         7.45      0.04      6.62      0.65
 REAL TIME  *         8.45 SEC
 DISK USED  *        42.19 MB      
 **********************************************************************************************************************************
 Molecular orbitals read from record     2100.2  Type=RKS/LOCAL(IBO)  
 Occupation numbers read from record     2100.2  Type=RKS/LOCAL(IBO)  
 Orbital energies read from record       2100.2  Type=RKS/LOCAL(IBO)  
 Redundancy group numbers read from rec  2100.2  Type=RKS/LOCAL(IBO)  

 IBBA/STO-3G energy=      0.000000000000

        KS-SCF  
   -270.92423071
 **********************************************************************************************************************************
 Molpro calculation terminated
