
 Primary working directories    : /tmp/sb13343
 Secondary working directories  : /tmp/sb13343
 Wavefunction directory         : /panfs/panasas01/chem/sb13343/wfu/
 Main file repository           : /tmp/sb13343/

 SHA1      : b4a5b34a9e711420743f49e6833241d17c61fb3c
 NAME      : 2099.9.b4a5b34
 ARCHNAME  : linux/x86_64_openmp
 FC        : /cm/shared/languages/GCC-6.1/bin/gfortran
 BLASLIB   : -lblas
 id        : simonbennie

 Nodes     nprocs
 node32-038    1

 Using customized tuning parameters: mindgm=1; mindgv=20; mindgc=4; mindgr=1; noblas=0; minvec=7
 default implementation of scratch files=df  

 memory,500,m
 geomtyp=xyz
 nosym
 noorient
 geometry={
 C          0.00000        0.00000        0.00000
 C          1.54025       -0.00009       -0.00004
 C         -0.51333        1.45219       -0.00005
 C         -0.51349       -0.72611       -1.25756
 C         -0.51342       -0.72599        1.25765
 H         -1.60999        1.48489       -0.00002
 H         -1.61015       -0.74237       -1.28580
 H         -1.61008       -0.74225        1.28596
 H         -0.16312        1.99638        0.88591
 H         -0.16316        1.99630       -0.88608
 H         -0.16333       -0.23096       -2.17186
 H         -0.16339       -1.76551       -1.28580
 H         -0.16332       -1.76539        1.28596
 H         -0.16320       -0.23077        2.17189
 H          1.93652       -1.02316       -0.00001
 H          1.93658        0.51138       -0.88607
 H          1.93663        0.51146        0.88592
 }
 basis={ default,svp }
 {ks,PBE0,direct;wf,42,1,0}
 {ibba,bonds=1}

 Variables initialized (895), CPU time= 0.00 sec
 Commands  initialized (725), CPU time= 0.02 sec, 591 directives.
 Default parameters read. Elapsed time= 0.08 sec

 Checking input...
 Passed
1


                                         ***  PROGRAM SYSTEM MOLPRO  ***
                                       Copyright, TTI GmbH Stuttgart, 2015
                                    Version 2099.9 linked May 26 2017 16:03:21


 **********************************************************************************************************************************
 LABEL *                                                                                 
  64 bit serial version                                                                  DATE: 08-Jun-17          TIME: 22:30:52  
 **********************************************************************************************************************************

 SHA1:             b4a5b34a9e711420743f49e6833241d17c61fb3c
 **********************************************************************************************************************************
 SETTING GEOMTYP        =    XYZ

 Variable memory set to  500000000 words,  buffer space 

 ZSYMEL=NOSYM

 SETTING BASIS          =    SVP


 Recomputing integrals since basis changed


 Using spherical harmonics

 Library entry C      S def2-SVP             selected for orbital group  1
 Library entry C      P def2-SVP             selected for orbital group  1
 Library entry C      D def2-SVP             selected for orbital group  1
 Library entry H      S def2-SVP             selected for orbital group  2
 Library entry H      P def2-SVP             selected for orbital group  2


 PROGRAM * SEWARD (Integral evaluation for generally contracted gaussian basis sets)     Author: Roland Lindh, 1990

 Geometry written to block  1 of record 700


 Point group  C1  



 ATOMIC COORDINATES

 NR  ATOM    CHARGE       X              Y              Z

   1  C       6.00    0.000000000    0.000000000    0.000000000
   2  C       6.00    2.910650663   -0.000170075   -0.000075589
   3  C       6.00   -0.970053112    2.744241381   -0.000094486
   4  C       6.00   -0.970355468   -1.372149036   -2.376443985
   5  C       6.00   -0.970223187   -1.371922269    2.376614061
   6  H       1.00   -3.042440163    2.806035425   -0.000037795
   7  H       1.00   -3.042742519   -1.402875983   -2.429809851
   8  H       1.00   -3.042610239   -1.402649216    2.430112207
   9  H       1.00   -0.308252125    3.772611441    1.674127271
  10  H       1.00   -0.308327714    3.772460262   -1.674448524
  11  H       1.00   -0.308648968   -0.436451146   -4.104220581
  12  H       1.00   -0.308762351   -3.336330370   -2.429809851
  13  H       1.00   -0.308630071   -3.336103603    2.430112207
  14  H       1.00   -0.308403304   -0.436092098    4.104277273
  15  H       1.00    3.659492435   -1.933492182   -0.000018897
  16  H       1.00    3.659605818    0.966368146   -1.674429627
  17  H       1.00    3.659700305    0.966519324    1.674146168

 Bond lengths in Bohr (Angstrom)

  1- 2  2.910650669   1- 3  2.910646630   1- 4  2.910647475   1- 5  2.910635350   2-15  2.073282028
       ( 1.540250003)       ( 1.540247866)       ( 1.540248313)       ( 1.540241896)       ( 1.097133601)

  2-16  2.073304464   2-17  2.073302258   3- 6  2.073308129   3- 9  2.073293037   3-10  2.073300754
       ( 1.097145474)       ( 1.097144306)       ( 1.097147413)       ( 1.097139427)       ( 1.097143510)

  4- 7  2.073301752   4-11  2.073306055   4-12  2.073297296   5- 8  2.073305161   5-13  2.073300706
       ( 1.097144038)       ( 1.097146316)       ( 1.097141681)       ( 1.097145842)       ( 1.097143485)

  5-14  2.073307464
       ( 1.097147061)

 Bond angles

  1- 2-15  111.17643746   1- 2-16  111.17582452   1- 2-17  111.17607088   1- 3- 6  111.17575783

  1- 3- 9  111.17644989   1- 3-10  111.17611121   1- 4- 7  111.17614317   1- 4-11  111.17631877

  1- 4-12  111.17675056   1- 5- 8  111.17663037   1- 5-13  111.17645588   1- 5-14  111.17672823

  2-1-3  109.47117711   2-1-4  109.47117360   2-1-5  109.47107360   3-1-4  109.47144919

  3- 1- 5  109.47121161   4- 1- 5  109.47123870   6- 3- 9  107.71338639   6- 3-10  107.71391335

  7- 4-11  107.71323113   7- 4-12  107.71354587   8- 5-13  107.71328790   8- 5-14  107.71342022

  9- 3-10  107.71420977  11- 4-12  107.71378459  13- 5-14  107.71321488  15- 2-16  107.71365571

 15- 2-17  107.71411853  16- 2-17  107.71372051

 NUCLEAR CHARGE:                   42
 NUMBER OF PRIMITIVE AOS:         209
 NUMBER OF SYMMETRY AOS:          204
 NUMBER OF CONTRACTIONS:          130   ( 130A   )
 NUMBER OF CORE ORBITALS:           5   (   5A   )
 NUMBER OF VALENCE ORBITALS:       32   (  32A   )


 NUCLEAR REPULSION ENERGY  197.66618863


 Eigenvalues of metric

         1 0.175E-02 0.577E-02 0.577E-02 0.577E-02 0.252E-01 0.252E-01 0.252E-01 0.256E-01


 Contracted 2-electron integrals neglected if value below      1.0D-11
 AO integral compression algorithm  1   Integral accuracy      1.0D-11

     139.198 MB (compressed) written to integral file ( 45.3%)


 NUMBER OF SORTED TWO-ELECTRON INTEGRALS:   36256870.     BUFFER LENGTH:  32768
 NUMBER OF SEGMENTS:   3  SEGMENT LENGTH:   15998004      RECORD LENGTH: 524288

 Memory used in sort:      16.56 MW

 SORT1 READ    38373714. AND WROTE    33465425. INTEGRALS IN     97 RECORDS. CPU TIME:     0.47 SEC, REAL TIME:     0.99 SEC
 SORT2 READ    33465425. AND WROTE    36256870. INTEGRALS IN    531 RECORDS. CPU TIME:     0.82 SEC, REAL TIME:     1.06 SEC

 FILE SIZES:   FILE 1:   170.1 MBYTE,  FILE 4:   406.9 MBYTE,   TOTAL:    576.9 MBYTE

 OPERATOR DM      FOR CENTER  0  COORDINATES:    0.000000    0.000000    0.000000


 **********************************************************************************************************************************
 DATASETS  * FILE   NREC   LENGTH (MB)   RECORD NAMES
              1      19      153.85       500      610      700      900      950      970     1000      129      960     1100   
                                          VAR    BASINP    GEOM    SYMINP    ZMAT    AOBASIS   BASIS     P2S    ABASIS      S 
                                         1400     1410     1200     1210     1080     1600     1650     1300     1700   
                                           T        V       H0       H01     AOSYM     SMH    MOLCAS    ERIS     OPER   

 PROGRAMS   *        TOTAL       INT
 CPU TIMES  *         5.14      5.00
 REAL TIME  *         9.79 SEC
 DISK USED  *       577.52 MB      
 **********************************************************************************************************************************

 Density functional group PBE0=PBEX+PBEC
 Functional: PBEX(Automatically generated (new) PBEX)                          Gradient terms: 1
 Functional: PBEC(Automatically generated (new) PBEC)                          Gradient terms: 1
 Use grid at  1800.2


 Exact exchange will be calculated, factor:  0.2500

 Functional: PBEX                      Factor:  0.7500
 Functional: PBEC                      Factor:  1.0000

 Generated new metagrid on record  1800.2 with target accuracy 1.0D-06 and 57016 points in CPU time    1.7
 Computed new grid on record 1800.1 in CPU time    1.9
  107513 words reserved for DFT integration

 PROGRAM * RKS-SCF (Restricted closed shell Kohn-Sham)     Authors: W. Meyer, H.-J. Werner, P.J. Knowles, 1993

 NUMBER OF ELECTRONS:      21+   21-    SPACE SYMMETRY=1    SPIN SYMMETRY: Singlet 
 CONVERGENCE THRESHOLDS:    1.00E-05 (Density)    1.00E-06 (Energy)
 MAX. NUMBER OF ITERATIONS:       60
 INTERPOLATION TYPE:            DIIS
 INTERPOLATION STEPS:              2 (START)      1 (STEP)
 LEVEL SHIFTS:                  0.00 (CLOSED)  0.00 (OPEN) 



 Use fine grid record 1800.2 for energy threshold  1.0D-06
 Orbital guess generated from atomic densities. Full valence occupancy:   21

 Molecular orbital dump at record        2100.2

 Initial occupancy:  21

 ITERATION    DDIFF          GRAD             ENERGY        2-EL.EN.            DIPOLE MOMENTS         DIIS   ORB.
    1      0.000D+00      0.000D+00      -197.18841232    582.301471   -0.00008   -0.00030   -0.00000    0    start
    2      0.000D+00      0.847D-02      -197.12213830    551.696045   -0.00020   -0.00030    0.00001    1    diag
    3      0.176D-01      0.100D-01      -197.37719361    568.682362   -0.00011   -0.00027   -0.00000    2    diag
    4      0.106D-01      0.746D-03      -197.37824257    568.144553   -0.00012   -0.00028    0.00000    3    diag
    5      0.768D-03      0.264D-03      -197.37839507    568.256955   -0.00012   -0.00028    0.00000    4    diag
    6      0.217D-03      0.223D-04      -197.37839617    568.271055   -0.00012   -0.00028    0.00000    5    diag
    7      0.349D-04      0.248D-05      -197.37839618    568.274306   -0.00012   -0.00028    0.00000    6    diag
    8      0.253D-05      0.922D-07      -197.37839618    568.274117   -0.00012   -0.00028    0.00000    0    orth

 Final occupancy:  21

 !RKS STATE 1.1 Energy               -197.378396183082
 Nuclear energy                       197.66618863
 One-electron energy                 -655.39093353
 Two-electron energy                  284.13705844
 SCF exchange energy                  -30.12066364     Factor= 0.2500
 Density functional                   -23.79070973     PBEX=-29.91002264 PBEC= -1.35819275
 Virial quotient                       -1.01307480
 !RKS STATE 1.1 Dipole moment          -0.00011865    -0.00027773     0.00000073
 Dipole moment /Debye                  -0.00030156    -0.00070588     0.00000185

 Orbital energies:

         1.1          2.1          3.1          4.1          5.1          6.1          7.1          8.1          9.1         10.1
    -10.243216   -10.217964   -10.217952   -10.217952   -10.217916    -0.833582    -0.692959    -0.692955    -0.692955    -0.541378

        11.1         12.1         13.1         14.1         15.1         16.1         17.1         18.1         19.1         20.1
     -0.457609    -0.457606    -0.457597    -0.407350    -0.407349    -0.370009    -0.370009    -0.370006    -0.329071    -0.329069

        21.1         22.1         23.1
     -0.329068     0.056880     0.116811

 HOMO     21.1    -0.329068 =      -8.9544eV
 LUMO     22.1     0.056880 =       1.5478eV
 LUMO-HOMO         0.385948 =      10.5022eV


 **********************************************************************************************************************************
 DATASETS  * FILE   NREC   LENGTH (MB)   RECORD NAMES
              1      20      155.67       500      610      700      900      950      970     1000      129      960     1100   
                                          VAR    BASINP    GEOM    SYMINP    ZMAT    AOBASIS   BASIS     P2S    ABASIS      S 
                                         1400     1410     1200     1210     1080     1600     1650     1300     1700     1800   
                                           T        V       H0       H01     AOSYM     SMH    MOLCAS    ERIS     OPER     GRID   

              2       5        3.39       700     1000      520     1800     2100   
                                         GEOM     BASIS   MCVARS    GRID      RKS  

 PROGRAMS   *        TOTAL        KS       INT
 CPU TIMES  *        20.81     15.67      5.00
 REAL TIME  *        25.93 SEC
 DISK USED  *       577.52 MB      
 **********************************************************************************************************************************


 PROGRAM * Intrinsic Basis Bonding Analysis (IBBA)          Author: G. Knizia

 Molecular orbitals read from record     2100.2  Type=RKS/CANONICAL (state 1.1)
 Fock matrix read from record            2100.2  Type=RKS/TOTAL (state 1.1)
 Orbital energies read from record       2100.2  Type=RKS/CANONICAL (state 1.1)
 Density matrix read from record         2100.2  Type=RKS/CHARGE (state 1.1)

 Number of core orbitals:           5 (   5 )
 Number of closed-shell orbitals:  16 (  16 )

 Basis set MINAO-AUTO-PP generated.      Number of basis functions:   37 

 Polarized AO type:                A = (O Ot + (1-O)(1-Ot)) P12
 Orthogonalization method:         Symmetric (Loewdin)
 Localization functional:          L = sum[A,i] <i|n_A|i>^4 -> max

 Localization group 1:  21 orbitals, occupancy  2.000
 Iterative localization: IB/PM,    8 iter; Final gradient 0.21E-09

 Bond order analysis:       [THRPRINT= 0.020]

   CEN ATOM   CEN ATOM     WIBERG.BO      RENORM.BO
     1   C  -   3   C       0.996900       0.997659
     1   C  -   5   C       0.996896       0.997650
     1   C  -   2   C       0.996895       0.997645
     1   C  -   4   C       0.996894       0.997649

     2   C  -   1   C       0.996895       0.997645
     2   C  -  15   H       0.964195       0.981709
     2   C  -  16   H       0.964186       0.981708
     2   C  -  17   H       0.964186       0.981708

     3   C  -   1   C       0.996900       0.997659
     3   C  -  10   H       0.964192       0.981709
     3   C  -   9   H       0.964192       0.981709
     3   C  -   6   H       0.964188       0.981715

     4   C  -   1   C       0.996894       0.997649
     4   C  -  11   H       0.964197       0.981710
     4   C  -   7   H       0.964192       0.981711
     4   C  -  12   H       0.964181       0.981711

     5   C  -   1   C       0.996896       0.997650
     5   C  -  14   H       0.964196       0.981710
     5   C  -   8   H       0.964191       0.981710
     5   C  -  13   H       0.964180       0.981710

     6   H  -   3   C       0.964188       0.981715

     7   H  -   4   C       0.964192       0.981711

     8   H  -   5   C       0.964191       0.981710

     9   H  -   3   C       0.964192       0.981709

    10   H  -   3   C       0.964192       0.981709

    11   H  -   4   C       0.964197       0.981710

    12   H  -   4   C       0.964181       0.981711

    13   H  -   5   C       0.964180       0.981710

    14   H  -   5   C       0.964196       0.981710

    15   H  -   2   C       0.964195       0.981709

    16   H  -   2   C       0.964186       0.981708

    17   H  -   2   C       0.964186       0.981708


 Valency analysis:

   CEN ATOM   TOT.VALENCE
     1   C       3.994425
     2   C       3.942282
     3   C       3.942288
     4   C       3.942281
     5   C       3.942281
     6   H       0.983596
     7   H       0.983601
     8   H       0.983602
     9   H       0.983603
    10   H       0.983603
    11   H       0.983607
    12   H       0.983589
    13   H       0.983589
    14   H       0.983607
    15   H       0.983604
    16   H       0.983598
    17   H       0.983598

 Total charge composition:

   CEN ATOM         s          p       ELECTRONS ->P.CHARGE
     1   C       2.92370    3.01028      5.93399    0.06601
     2   C       3.02585    3.37485      6.40070   -0.40070
     3   C       3.02584    3.37484      6.40068   -0.40068
     4   C       3.02585    3.37485      6.40070   -0.40070
     5   C       3.02585    3.37485      6.40070   -0.40070
     6   H       0.87192                 0.87192    0.12808
     7   H       0.87194                 0.87194    0.12806
     8   H       0.87194                 0.87194    0.12806
     9   H       0.87195                 0.87195    0.12805
    10   H       0.87195                 0.87195    0.12805
    11   H       0.87197                 0.87197    0.12803
    12   H       0.87189                 0.87189    0.12811
    13   H       0.87189                 0.87189    0.12811
    14   H       0.87197                 0.87197    0.12803
    15   H       0.87195                 0.87195    0.12805
    16   H       0.87193                 0.87193    0.12807
    17   H       0.87193                 0.87193    0.12807

 Total charge composition, AO contributions:

   CEN ATOM SHL      SPHERICAL COMPONENTS
     1   C  1s       1.99200
     1   C  2s       0.93170
     1   C  2p       1.00343    1.00343    1.00342

     2   C  1s       1.99103
     2   C  2s       1.03482
     2   C  2p       1.05494    1.15995    1.15996

     3   C  1s       1.99103
     3   C  2s       1.03481
     3   C  2p       1.14829    1.06661    1.15993

     4   C  1s       1.99103
     4   C  2s       1.03481
     4   C  2p       1.14828    1.13664    1.08993

     5   C  1s       1.99103
     5   C  2s       1.03481
     5   C  2p       1.14828    1.13665    1.08992

     6   H  1s       0.87192

     7   H  1s       0.87194

     8   H  1s       0.87194

     9   H  1s       0.87195

    10   H  1s       0.87195

    11   H  1s       0.87197

    12   H  1s       0.87189

    13   H  1s       0.87189

    14   H  1s       0.87197

    15   H  1s       0.87195

    16   H  1s       0.87193

    17   H  1s       0.87193

 Summary of localized orbital composition:   [THRPRINT= 0.020]

   ORB  GRP  ORB.ENERGY      CENTERS/CHARGES
     1   1   -10.145878      C  1   2.000
     2   1   -10.103594      C  3   2.000
     3   1   -10.103578      C  4   2.000
     4   1   -10.103578      C  2   2.000
     5   1   -10.103578      C  5   2.000
     6   1    -0.562132      C  5   1.006   C  1   0.969   (other: 0.025)
     7   1    -0.562129      C  3   1.006   C  1   0.969   (other: 0.025)
     8   1    -0.562128      C  4   1.006   C  1   0.969   (other: 0.025)
     9   1    -0.562127      C  2   1.006   C  1   0.969   (other: 0.025)
    10   1    -0.503745      C  2   1.127   H 15   0.864
    11   1    -0.503745      C  3   1.127   H  9   0.864
    12   1    -0.503744      C  3   1.127   H  6   0.864
    13   1    -0.503743      C  3   1.127   H 10   0.864
    14   1    -0.503738      C  4   1.127   H 11   0.864
    15   1    -0.503737      C  5   1.127   H 14   0.864
    16   1    -0.503737      C  4   1.127   H  7   0.864
    17   1    -0.503736      C  5   1.127   H  8   0.864
    18   1    -0.503735      C  2   1.127   H 17   0.864
    19   1    -0.503734      C  2   1.127   H 16   0.864
    20   1    -0.503730      C  4   1.127   H 12   0.864
    21   1    -0.503728      C  5   1.127   H 13   0.864

 Localized orbitals saved to record      2100.2  (orbital set 2)


 **********************************************************************************************************************************
 DATASETS  * FILE   NREC   LENGTH (MB)   RECORD NAMES
              1      20      155.67       500      610      700      900      950      970     1000      129      960     1100   
                                          VAR    BASINP    GEOM    SYMINP    ZMAT    AOBASIS   BASIS     P2S    ABASIS      S 
                                         1400     1410     1200     1210     1080     1600     1650     1300     1700     1800   
                                           T        V       H0       H01     AOSYM     SMH    MOLCAS    ERIS     OPER     GRID   

              2       5        3.53       700     1000      520     1800     2100   
                                         GEOM     BASIS   MCVARS    GRID      RKS  

 PROGRAMS   *        TOTAL      IBBA        KS       INT
 CPU TIMES  *        20.84      0.03     15.67      5.00
 REAL TIME  *        26.11 SEC
 DISK USED  *       577.52 MB      
 **********************************************************************************************************************************
 Molecular orbitals read from record     2100.2  Type=RKS/LOCAL(IBO)  
 Occupation numbers read from record     2100.2  Type=RKS/LOCAL(IBO)  
 Orbital energies read from record       2100.2  Type=RKS/LOCAL(IBO)  
 Redundancy group numbers read from rec  2100.2  Type=RKS/LOCAL(IBO)  

 IBBA/SVP energy=      0.000000000000

        KS-SCF  
   -197.37839618
 **********************************************************************************************************************************
 Molpro calculation terminated
