
 Primary working directories    : /local
 Secondary working directories  : /local
 Wavefunction directory         : /local/
 Main file repository           : /local/

 SHA1      : b4a5b34a9e711420743f49e6833241d17c61fb3c
 NAME      : 2099.9.b4a5b34
 ARCHNAME  : linux/x86_64_openmp
 FC        : /cm/shared/languages/GCC-6.1/bin/gfortran
 BLASLIB   : -lblas
 id        : simonbennie

 Nodes     nprocs
 node33-045    1

 Using customized tuning parameters: mindgm=1; mindgv=20; mindgc=4; mindgr=1; noblas=0; minvec=7
 default implementation of scratch files=df  

 memory,500,m
 geomtyp=xyz
 nosym
 noorient
 geometry={
 C         -1.53233        0.02247        0.00000
 C         -0.00192        0.01421        0.00000
 O          0.37239        1.40356        0.00000
 H          1.34248        1.44036        0.00000
 H         -1.92991       -0.99819        0.00000
 H         -1.90797        0.54382       -0.88653
 H         -1.90797        0.54382        0.88653
 C          0.54303       -0.66466       -1.26580
 C          0.54303       -0.66466        1.26580
 H          0.17836       -0.14752       -2.15943
 H          0.17836       -0.14752        2.15943
 H          0.23752       -1.71600       -1.32280
 H          0.23752       -1.71600        1.32280
 H          1.64084       -0.63767       -1.28032
 H          1.64084       -0.63767        1.28032
 }
 basis={ default,qzvp }
 {ks,PBE,direct;wf,42,1,0}
 {ibba,bonds=1}

 Variables initialized (895), CPU time= 0.01 sec
 Commands  initialized (725), CPU time= 0.01 sec, 591 directives.
 Default parameters read. Elapsed time= 0.51 sec

 Checking input...
 Passed
1


                                         ***  PROGRAM SYSTEM MOLPRO  ***
                                       Copyright, TTI GmbH Stuttgart, 2015
                                    Version 2099.9 linked May 26 2017 16:03:21


 **********************************************************************************************************************************
 LABEL *                                                                                 
  64 bit serial version                                                                  DATE: 12-Jun-17          TIME: 18:08:15  
 **********************************************************************************************************************************

 SHA1:             b4a5b34a9e711420743f49e6833241d17c61fb3c
 **********************************************************************************************************************************
 SETTING GEOMTYP        =    XYZ

 Variable memory set to  500000000 words,  buffer space 

 ZSYMEL=NOSYM

 SETTING BASIS          =    QZVP


 Recomputing integrals since basis changed


 Using spherical harmonics

 Library entry C      S def2-QZVP            selected for orbital group  1
 Library entry C      P def2-QZVP            selected for orbital group  1
 Library entry C      D def2-QZVP            selected for orbital group  1
 Library entry C      F def2-QZVP            selected for orbital group  1
 Library entry C      G def2-QZVP            selected for orbital group  1
 Library entry O      S def2-QZVP            selected for orbital group  2
 Library entry O      P def2-QZVP            selected for orbital group  2
 Library entry O      D def2-QZVP            selected for orbital group  2
 Library entry O      F def2-QZVP            selected for orbital group  2
 Library entry O      G def2-QZVP            selected for orbital group  2
 Library entry H      S def2-QZVP            selected for orbital group  3
 Library entry H      P def2-QZVP            selected for orbital group  3
 Library entry H      D def2-QZVP            selected for orbital group  3
 Library entry H      F def2-QZVP            selected for orbital group  3


 PROGRAM * SEWARD (Integral evaluation for generally contracted gaussian basis sets)     Author: Roland Lindh, 1990

 Geometry written to block  1 of record 700


 Point group  C1  



 ATOMIC COORDINATES

 NR  ATOM    CHARGE       X              Y              Z

   1  C       6.00   -2.895684032    0.042462146    0.000000000
   2  C       6.00   -0.003628274    0.026853008    0.000000000
   3  O       8.00    0.703715112    2.652343999    0.000000000
   4  H       1.00    2.536919528    2.721885921    0.000000000
   5  H       1.00   -3.647001345   -1.886305720    0.000000000
   6  H       1.00   -3.605540754    1.027670861   -1.675298901
   7  H       1.00   -3.605540754    1.027670861    1.675298901
   8  C       6.00    1.026177977   -1.256025366   -2.392015328
   9  C       6.00    1.026177977   -1.256025366    2.392015328
  10  H       1.00    0.337051552   -0.278772398   -4.080731285
  11  H       1.00    0.337051552   -0.278772398    4.080731285
  12  H       1.00    0.448847749   -3.242770030   -2.499729718
  13  H       1.00    0.448847749   -3.242770030    2.499729718
  14  H       1.00    3.100738214   -1.205021658   -2.419454152
  15  H       1.00    3.100738214   -1.205021658    2.419454152

 Bond lengths in Bohr (Angstrom)

 1-2  2.892097881  1-5  2.069933136  1-6  2.069096224  1-7  2.069096224  2-3  2.719106031
     ( 1.530432290)     ( 1.095361444)     ( 1.094918569)     ( 1.094918569)     ( 1.438888946)

  2- 8  2.903104402   2- 9  2.903104402   3- 4  1.834522965   8-10  2.069222119   8-12  2.071730422
       ( 1.536256691)       ( 1.536256691)       ( 0.970787746)       ( 1.094985190)       ( 1.096312526)

  8-14  2.075368508   9-11  2.069222119   9-13  2.071730422   9-15  2.075368508
       ( 1.098237719)       ( 1.094985190)       ( 1.096312526)       ( 1.098237719)

 Bond angles

  1-2-3  104.76902697   1-2-8  110.92255387   1-2-9  110.92255387   2-1-5  110.97328220

  2- 1- 6  110.22090701   2- 1- 7  110.22090701   2- 3- 4  107.25071562   2- 8-10  110.21836376

  2- 8-12  111.57747468   2- 8-14  110.77023896   2- 9-11  110.21836376   2- 9-13  111.57747468

  2- 9-15  110.77023896   3- 2- 8  109.53648747   3- 2- 9  109.53648747   5- 1- 6  108.61190457

  5- 1- 7  108.61190457   6- 1- 7  108.12870271   8- 2- 9  110.96453384  10- 8-12  108.52192632

 10- 8-14  108.08997829  11- 9-13  108.52192632  11- 9-15  108.08997829  12- 8-14  107.54424578

 13- 9-15  107.54424578

 NUCLEAR CHARGE:                   42
 NUMBER OF PRIMITIVE AOS:         840
 NUMBER OF SYMMETRY AOS:          715
 NUMBER OF CONTRACTIONS:          585   ( 585A   )
 NUMBER OF CORE ORBITALS:           5   (   5A   )
 NUMBER OF VALENCE ORBITALS:       30   (  30A   )


 NUCLEAR REPULSION ENERGY  198.77359127


 Eigenvalues of metric

         1 0.447E-04 0.459E-04 0.470E-04 0.743E-04 0.823E-04 0.917E-04 0.943E-04 0.107E-03


 Contracted 2-electron integrals neglected if value below      1.0D-12
 AO integral compression algorithm  1   Integral accuracy      1.0D-12

     40752.906 MB (compressed) written to integral file ( 33.4%)


 NUMBER OF SORTED TWO-ELECTRON INTEGRALS:14689922715.     BUFFER LENGTH:  32768
 NUMBER OF SEGMENTS: 184  SEGMENT LENGTH:   79999773      RECORD LENGTH: 262144

 Memory used in sort:      80.29 MW

 SORT1 READ 15248138275. AND WROTE 10587813328. INTEGRALS IN  60679 RECORDS. CPU TIME:   186.16 SEC, REAL TIME:  2473.15 SEC
 SORT2 READ 10587813328. AND WROTE 14689922715. INTEGRALS IN 155460 RECORDS. CPU TIME:   308.74 SEC, REAL TIME:  3582.94 SEC

 FILE SIZES:   FILE 1: 40795.6 MBYTE,  FILE 4:127253.1 MBYTE,   TOTAL: 168048.8 MBYTE

 OPERATOR DM      FOR CENTER  0  COORDINATES:    0.000000    0.000000    0.000000


 **********************************************************************************************************************************
 DATASETS  * FILE   NREC   LENGTH (MB)   RECORD NAMES
              1      19    37754.71       500      610      700      900      950      970     1000      129      960     1100   
                                          VAR    BASINP    GEOM    SYMINP    ZMAT    AOBASIS   BASIS     P2S    ABASIS      S 
                                         1400     1410     1200     1210     1080     1600     1650     1300     1700   
                                           T        V       H0       H01     AOSYM     SMH    MOLCAS    ERIS     OPER   

 PROGRAMS   *        TOTAL       INT
 CPU TIMES  *      1145.08   1144.93
 REAL TIME  *      6833.51 SEC
 DISK USED  *       168.05 GB      
 **********************************************************************************************************************************

 Density functional group PBE=PBEX+PBEC
 Functional: PBEX(Automatically generated (new) PBEX)                          Gradient terms: 1
 Functional: PBEC(Automatically generated (new) PBEC)                          Gradient terms: 1
 Use grid at  1800.2

 Functional: PBEX                      Factor:  1.0000
 Functional: PBEC                      Factor:  1.0000

 Generated new metagrid on record  1800.2 with target accuracy 1.0D-06 and 58228 points in CPU time    1.6
 Computed new grid on record 1800.1 in CPU time    1.8
  469144 words reserved for DFT integration

 PROGRAM * RKS-SCF (Restricted closed shell Kohn-Sham)     Authors: W. Meyer, H.-J. Werner, P.J. Knowles, 1993

 NUMBER OF ELECTRONS:      21+   21-    SPACE SYMMETRY=1    SPIN SYMMETRY: Singlet 
 CONVERGENCE THRESHOLDS:    1.00E-05 (Density)    1.00E-06 (Energy)
 MAX. NUMBER OF ITERATIONS:       60
 INTERPOLATION TYPE:            DIIS
 INTERPOLATION STEPS:              2 (START)      1 (STEP)
 LEVEL SHIFTS:                  0.00 (CLOSED)  0.00 (OPEN) 



 Use fine grid record 1800.2 for energy threshold  1.0D-06
 Orbital guess generated from atomic densities. Full valence occupancy:   21

 Molecular orbital dump at record        2100.2

 Initial occupancy:  21

 ITERATION    DDIFF          GRAD             ENERGY        2-EL.EN.            DIPOLE MOMENTS         DIIS   ORB.
    1      0.000D+00      0.000D+00      -233.16486773    640.463115    0.69264   -0.76994    0.00000    0    start
    2      0.000D+00      0.512D-02      -232.55546716    587.693433   -0.67201    0.27726   -0.00000    1    diag
    3      0.142D-01      0.868D-02      -233.45917552    624.122211    0.42609   -0.73473    0.00000    2    diag
    4      0.135D-01      0.128D-02      -233.47261363    621.894817    0.32977   -0.39004    0.00000    3    diag
    5      0.607D-03      0.508D-03      -233.47480260    621.619760    0.31682   -0.52949    0.00000    4    diag
    6      0.153D-03      0.165D-03      -233.47505532    621.823884    0.32367   -0.49641    0.00000    5    diag
    7      0.444D-04      0.485D-04      -233.47507580    621.810849    0.32762   -0.49510    0.00000    6    diag
    8      0.110D-04      0.635D-05      -233.47507627    621.829148    0.32605   -0.50014    0.00000    7    diag
    9      0.358D-05      0.215D-05      -233.47507625    621.825298    0.32719   -0.49691    0.00000    0    orth

 Final occupancy:  21

 !RKS STATE 1.1 Energy               -233.475076251687
 Nuclear energy                       198.77359127
 One-electron energy                 -709.44515324
 Two-electron energy                  310.91264888
 Density functional                   -33.71616317     PBEX=-32.35265734 PBEC= -1.36350583
 Virial quotient                       -1.00480000
 !RKS STATE 1.1 Dipole moment           0.32719001    -0.49691009     0.00000000
 Dipole moment /Debye                   0.83157959    -1.26293674     0.00000000

 Orbital energies:

         1.1          2.1          3.1          4.1          5.1          6.1          7.1          8.1          9.1         10.1
    -18.746455    -9.946108    -9.876383    -9.876382    -9.871726    -0.931437    -0.715741    -0.625189    -0.624536    -0.514013

        11.1         12.1         13.1         14.1         15.1         16.1         17.1         18.1         19.1         20.1
     -0.440211    -0.404636    -0.401926    -0.366430    -0.352995    -0.336943    -0.323251    -0.312533    -0.305990    -0.279350

        21.1         22.1         23.1
     -0.226623    -0.011357     0.025661

 HOMO     21.1    -0.226623 =      -6.1667eV
 LUMO     22.1    -0.011357 =      -0.3090eV
 LUMO-HOMO         0.215267 =       5.8577eV


 **********************************************************************************************************************************
 DATASETS  * FILE   NREC   LENGTH (MB)   RECORD NAMES
              1      20    37756.57       500      610      700      900      950      970     1000      129      960     1100   
                                          VAR    BASINP    GEOM    SYMINP    ZMAT    AOBASIS   BASIS     P2S    ABASIS      S 
                                         1400     1410     1200     1210     1080     1600     1650     1300     1700     1800   
                                           T        V       H0       H01     AOSYM     SMH    MOLCAS    ERIS     OPER     GRID   

              2       5        9.95       700     1000      520     1800     2100   
                                         GEOM     BASIS   MCVARS    GRID      RKS  

 PROGRAMS   *        TOTAL        KS       INT
 CPU TIMES  *      2137.85    992.78   1144.93
 REAL TIME  *      8445.57 SEC
 DISK USED  *       168.05 GB      
 **********************************************************************************************************************************


 PROGRAM * Intrinsic Basis Bonding Analysis (IBBA)          Author: G. Knizia

 Molecular orbitals read from record     2100.2  Type=RKS/CANONICAL (state 1.1)
 Fock matrix read from record            2100.2  Type=RKS/TOTAL (state 1.1)
 Orbital energies read from record       2100.2  Type=RKS/CANONICAL (state 1.1)
 Density matrix read from record         2100.2  Type=RKS/CHARGE (state 1.1)

 Number of core orbitals:           5 (   5 )
 Number of closed-shell orbitals:  16 (  16 )

 Basis set MINAO-AUTO-PP generated.      Number of basis functions:   35 

 Polarized AO type:                A = (O Ot + (1-O)(1-Ot)) P12
 Orthogonalization method:         Symmetric (Loewdin)
 Localization functional:          L = sum[A,i] <i|n_A|i>^4 -> max

 Localization group 1:  21 orbitals, occupancy  2.000
 Iterative localization: IB/PM,    7 iter; Final gradient 0.16E-08

 Bond order analysis:       [THRPRINT= 0.020]

   CEN ATOM   CEN ATOM     WIBERG.BO      RENORM.BO
     1   C  -   2   C       0.996492       0.993037
     1   C  -   5   H       0.959511       0.986059
     1   C  -   6   H       0.954669       0.979605
     1   C  -   7   H       0.954669       0.979605

     2   C  -   1   C       0.996492       0.993037
     2   C  -   9   C       0.995063       0.973703
     2   C  -   8   C       0.995063       0.973703
     2   C  -   3   O       0.937218       0.944098

     3   O  -   2   C       0.937218       0.944098
     3   O  -   4   H       0.859576       0.973313
     3   O  -   9   C       0.030587       0.015643
     3   O  -   8   C       0.030587       0.015643

     4   H  -   3   O       0.859576       0.973313

     5   H  -   1   C       0.959511       0.986059

     6   H  -   1   C       0.954669       0.979605

     7   H  -   1   C       0.954669       0.979605

     8   C  -   2   C       0.995063       0.973703
     8   C  -  14   H       0.958905       0.980477
     8   C  -  10   H       0.955260       0.979436
     8   C  -  12   H       0.954602       0.978774
     8   C  -   3   O       0.030587       0.015643

     9   C  -   2   C       0.995063       0.973703
     9   C  -  15   H       0.958905       0.980477
     9   C  -  11   H       0.955260       0.979436
     9   C  -  13   H       0.954602       0.978774
     9   C  -   3   O       0.030587       0.015643

    10   H  -   8   C       0.955260       0.979436

    11   H  -   9   C       0.955260       0.979436

    12   H  -   8   C       0.954602       0.978774

    13   H  -   9   C       0.954602       0.978774

    14   H  -   8   C       0.958905       0.980477

    15   H  -   9   C       0.958905       0.980477


 Valency analysis:

   CEN ATOM   TOT.VALENCE
     1   C       3.931024
     2   C       3.934895
     3   O       1.933181
     4   H       0.881363
     5   H       0.979846
     6   H       0.977360
     7   H       0.977360
     8   C       3.933697
     9   C       3.933697
    10   H       0.977412
    11   H       0.977412
    12   H       0.979240
    13   H       0.979240
    14   H       0.981561
    15   H       0.981561

 Total charge composition:

   CEN ATOM         s          p       ELECTRONS ->P.CHARGE
     1   C       3.04685    3.38818      6.43504   -0.43504
     2   C       2.94087    2.81263      5.75350    0.24650
     3   O       3.65277    4.90890      8.56167   -0.56167
     4   H       0.65556                 0.65556    0.34444
     5   H       0.85803                 0.85803    0.14197
     6   H       0.84954                 0.84954    0.15046
     7   H       0.84954                 0.84954    0.15046
     8   C       3.05383    3.39489      6.44873   -0.44873
     9   C       3.05383    3.39489      6.44873   -0.44873
    10   H       0.84971                 0.84971    0.15029
    11   H       0.84971                 0.84971    0.15029
    12   H       0.85592                 0.85592    0.14408
    13   H       0.85592                 0.85592    0.14408
    14   H       0.86421                 0.86421    0.13579
    15   H       0.86421                 0.86421    0.13579

 Total charge composition, AO contributions:

   CEN ATOM SHL      SPHERICAL COMPONENTS
     1   C  1s       1.99139
     1   C  2s       1.05546
     1   C  2p       1.04061    1.16762    1.17995

     2   C  1s       1.99301
     2   C  2s       0.94787
     2   C  2p       1.00801    0.79326    1.01136

     3   O  1s       1.99721
     3   O  2s       1.65556
     3   O  2p       1.47263    1.48523    1.95103

     4   H  1s       0.65556

     5   H  1s       0.85803

     6   H  1s       0.84954

     7   H  1s       0.84954

     8   C  1s       1.99149
     8   C  2s       1.06234
     8   C  2p       1.14935    1.14861    1.09693

     9   C  1s       1.99149
     9   C  2s       1.06234
     9   C  2p       1.14935    1.14861    1.09693

    10   H  1s       0.84971

    11   H  1s       0.84971

    12   H  1s       0.85592

    13   H  1s       0.85592

    14   H  1s       0.86421

    15   H  1s       0.86421

 Summary of localized orbital composition:   [THRPRINT= 0.020]

   ORB  GRP  ORB.ENERGY      CENTERS/CHARGES
     1   1   -18.592275      O  3   2.000
     2   1    -9.856679      C  2   2.000
     3   1    -9.764134      C  8   2.000
     4   1    -9.764134      C  9   2.000
     5   1    -9.758716      C  1   2.000
     6   1    -0.697980      O  3   1.347   H  4   0.642
     7   1    -0.656610      O  3   1.279   C  2   0.701
     8   1    -0.520758      C  8   1.007   C  2   0.977
     9   1    -0.520758      C  9   1.007   C  2   0.977
    10   1    -0.520511      C  1   0.990   C  2   0.984   (other: 0.025)
    11   1    -0.514183      O  3   1.980
    12   1    -0.455171      C  9   1.139   H 13   0.845
    13   1    -0.455171      C  8   1.139   H 12   0.845
    14   1    -0.453682      C  8   1.131   H 14   0.856
    15   1    -0.453682      C  9   1.131   H 15   0.856
    16   1    -0.451322      C  1   1.135   H  5   0.850
    17   1    -0.449401      C  9   1.148   H 11   0.841
    18   1    -0.449401      C  8   1.148   H 10   0.841
    19   1    -0.445195      C  1   1.147   H  6   0.841
    20   1    -0.445195      C  1   1.147   H  7   0.841
    21   1    -0.253904      O  3   1.951   (other: 0.049)

 Localized orbitals saved to record      2100.2  (orbital set 2)


 **********************************************************************************************************************************
 DATASETS  * FILE   NREC   LENGTH (MB)   RECORD NAMES
              1      20    37756.57       500      610      700      900      950      970     1000      129      960     1100   
                                          VAR    BASINP    GEOM    SYMINP    ZMAT    AOBASIS   BASIS     P2S    ABASIS      S 
                                         1400     1410     1200     1210     1080     1600     1650     1300     1700     1800   
                                           T        V       H0       H01     AOSYM     SMH    MOLCAS    ERIS     OPER     GRID   

              2       5       12.70       700     1000      520     1800     2100   
                                         GEOM     BASIS   MCVARS    GRID      RKS  

 PROGRAMS   *        TOTAL      IBBA        KS       INT
 CPU TIMES  *      2138.32      0.47    992.78   1144.93
 REAL TIME  *      8446.57 SEC
 DISK USED  *       168.05 GB      
 **********************************************************************************************************************************
 Molecular orbitals read from record     2100.2  Type=RKS/LOCAL(IBO)  
 Occupation numbers read from record     2100.2  Type=RKS/LOCAL(IBO)  
 Orbital energies read from record       2100.2  Type=RKS/LOCAL(IBO)  
 Redundancy group numbers read from rec  2100.2  Type=RKS/LOCAL(IBO)  

 IBBA/QZVP energy=      0.000000000000

        KS-SCF  
   -233.47507625
 **********************************************************************************************************************************
 Molpro calculation terminated
