
 Primary working directories    : /tmp/sb13343
 Secondary working directories  : /tmp/sb13343
 Wavefunction directory         : /panfs/panasas01/chem/sb13343/wfu/
 Main file repository           : /tmp/sb13343/

 SHA1      : b4a5b34a9e711420743f49e6833241d17c61fb3c
 NAME      : 2099.9.b4a5b34
 ARCHNAME  : linux/x86_64_openmp
 FC        : /cm/shared/languages/GCC-6.1/bin/gfortran
 BLASLIB   : -lblas
 id        : simonbennie

 Nodes     nprocs
 node32-002    1

 Using customized tuning parameters: mindgm=1; mindgv=20; mindgc=4; mindgr=1; noblas=0; minvec=7
 default implementation of scratch files=df  

 memory,500,m
 geomtyp=xyz
 nosym
 noorient
 geometry={
 C          0.00000        0.00000        0.00000
 C          0.00000        0.00000        1.53307
 O          1.40344        0.00000        1.86307
 C          1.76314        0.00000        3.22887
 H         -1.02289        0.00000       -0.39176
 H          0.51995       -0.88625       -0.37815
 H          0.51995        0.88625       -0.37815
 H          2.85677        0.00000        3.25413
 H          1.40708       -0.89217        3.76475
 H          1.40708        0.89217        3.76475
 C         -0.69252       -1.26694        2.06222
 C         -0.69252        1.26694        2.06222
 H         -0.15366       -2.16088        1.72982
 H         -0.15366        2.16088        1.72982
 H         -1.72011       -1.32515        1.68649
 H         -1.72011        1.32515        1.68649
 H         -0.74365       -1.28188        3.15638
 H         -0.74365        1.28188        3.15638
 }
 basis={ default,svp }
 {uks,MM06,direct;wf,50,1,0}
 {ibba,bonds=1}

 Variables initialized (895), CPU time= 0.00 sec
 Commands  initialized (725), CPU time= 0.02 sec, 591 directives.
 Default parameters read. Elapsed time= 0.12 sec

 Checking input...
 Passed
1


                                         ***  PROGRAM SYSTEM MOLPRO  ***
                                       Copyright, TTI GmbH Stuttgart, 2015
                                    Version 2099.9 linked May 26 2017 16:03:21


 **********************************************************************************************************************************
 LABEL *                                                                                 
  64 bit serial version                                                                  DATE: 09-Jun-17          TIME: 01:57:17  
 **********************************************************************************************************************************

 SHA1:             b4a5b34a9e711420743f49e6833241d17c61fb3c
 **********************************************************************************************************************************
 SETTING GEOMTYP        =    XYZ

 Variable memory set to  500000000 words,  buffer space 

 ZSYMEL=NOSYM

 SETTING BASIS          =    SVP


 Recomputing integrals since basis changed


 Using spherical harmonics

 Library entry C      S def2-SVP             selected for orbital group  1
 Library entry C      P def2-SVP             selected for orbital group  1
 Library entry C      D def2-SVP             selected for orbital group  1
 Library entry O      S def2-SVP             selected for orbital group  2
 Library entry O      P def2-SVP             selected for orbital group  2
 Library entry O      D def2-SVP             selected for orbital group  2
 Library entry H      S def2-SVP             selected for orbital group  4
 Library entry H      P def2-SVP             selected for orbital group  4


 PROGRAM * SEWARD (Integral evaluation for generally contracted gaussian basis sets)     Author: Roland Lindh, 1990

 Geometry written to block  1 of record 700


 Point group  C1  



 ATOMIC COORDINATES

 NR  ATOM    CHARGE       X              Y              Z

   1  C       6.00    0.000000000    0.000000000    0.000000000
   2  C       6.00    0.000000000    0.000000000    2.897082430
   3  O       8.00    2.652117232    0.000000000    3.520692051
   4  C       6.00    3.331851719    0.000000000    6.101679992
   5  H       1.00   -1.932981956    0.000000000   -0.740319107
   6  H       1.00    0.982563098   -1.674769778   -0.714599934
   7  H       1.00    0.982563098    1.674769778   -0.714599934
   8  H       1.00    5.398512901    0.000000000    6.149414474
   9  H       1.00    2.658995835   -1.685956957    7.114346427
  10  H       1.00    2.658995835    1.685956957    7.114346427
  11  C       6.00   -1.308673136   -2.394169616    3.897031009
  12  C       6.00   -1.308673136    2.394169616    3.897031009
  13  H       1.00   -0.290375316   -4.083471388    3.268886045
  14  H       1.00   -0.290375316    4.083471388    3.268886045
  15  H       1.00   -3.250536804   -2.504170574    3.187004212
  16  H       1.00   -3.250536804    2.504170574    3.187004212
  17  H       1.00   -1.405294833   -2.422402125    5.964693745
  18  H       1.00   -1.405294833    2.422402125    5.964693745

 Bond lengths in Bohr (Angstrom)

 1-2  2.897082430  1-5  2.069901355  1-6  2.069042560  1-7  2.069042560  2-3  2.724447609
     ( 1.533070000)     ( 1.095344626)     ( 1.094890171)     ( 1.094890171)     ( 1.441715587)

  2-11  2.905954351   2-12  2.905954351   3- 4  2.668995640   4- 8  2.067212379   4- 9  2.078624355
       ( 1.537764818)       ( 1.537764818)       ( 1.412371669)       ( 1.093921681)       ( 1.099960639)

  4-10  2.078624355  11-13  2.070081404  11-15  2.070524757  11-17  2.070111596  12-14  2.070081404
       ( 1.099960639)       ( 1.095439904)       ( 1.095674516)       ( 1.095455880)       ( 1.095439904)

 12-16  2.070524757  12-18  2.070111596
       ( 1.095674516)       ( 1.095455880)

 Bond angles

  1- 2- 3  103.23196371   1- 2-11  110.12706952   1- 2-12  110.12706952   2- 1- 5  110.95650426

  2- 1- 6  110.20481748   2- 1- 7  110.20481748   2- 3- 4  117.98647004   2-11-13  110.26679927

  2-11-15  110.37287188   2-11-17  112.08316935   2-12-14  110.26679927   2-12-16  110.37287188

  2-12-18  112.08316935   3- 2-11  111.07703285   3- 2-12  111.07703285   3- 4- 8  106.07765410

  3- 4- 9  112.87219182   3- 4-10  112.87219182   5- 1- 6  108.65976572   5- 1- 7  108.65976572

  6- 1- 7  108.08288210   8- 4- 9  108.20190897   8- 4-10  108.20190897   9- 4-10  108.40564999

 11- 2-12  110.95103964  13-11-15  108.29648994  13-11-17  108.35544687  14-12-16  108.29648994

 14-12-18  108.35544687  15-11-17  107.33851825  16-12-18  107.33851825

 NUCLEAR CHARGE:                   50
 NUMBER OF PRIMITIVE AOS:         234
 NUMBER OF SYMMETRY AOS:          228
 NUMBER OF CONTRACTIONS:          144   ( 144A   )
 NUMBER OF CORE ORBITALS:           6   (   6A   )
 NUMBER OF VALENCE ORBITALS:       36   (  36A   )


 NUCLEAR REPULSION ENERGY  270.15500869


 Eigenvalues of metric

         1 0.176E-02 0.508E-02 0.513E-02 0.102E-01 0.124E-01 0.215E-01 0.221E-01 0.252E-01


 Contracted 2-electron integrals neglected if value below      1.0D-11
 AO integral compression algorithm  1   Integral accuracy      1.0D-11

     186.384 MB (compressed) written to integral file ( 41.3%)


 NUMBER OF SORTED TWO-ELECTRON INTEGRALS:   54502020.     BUFFER LENGTH:  32768
 NUMBER OF SEGMENTS:   4  SEGMENT LENGTH:   15999503      RECORD LENGTH: 524288

 Memory used in sort:      16.56 MW

 SORT1 READ    56333432. AND WROTE    45703433. INTEGRALS IN    132 RECORDS. CPU TIME:     0.83 SEC, REAL TIME:     2.16 SEC
 SORT2 READ    45703433. AND WROTE    54502020. INTEGRALS IN    711 RECORDS. CPU TIME:     1.18 SEC, REAL TIME:     8.57 SEC

 FILE SIZES:   FILE 1:   217.4 MBYTE,  FILE 4:   553.7 MBYTE,   TOTAL:    771.1 MBYTE

 OPERATOR DM      FOR CENTER  0  COORDINATES:    0.000000    0.000000    0.000000


 **********************************************************************************************************************************
 DATASETS  * FILE   NREC   LENGTH (MB)   RECORD NAMES
              1      19      194.45       500      610      700      900      950      970     1000      129      960     1100   
                                          VAR    BASINP    GEOM    SYMINP    ZMAT    AOBASIS   BASIS     P2S    ABASIS      S 
                                         1400     1410     1200     1210     1080     1600     1650     1300     1700   
                                           T        V       H0       H01     AOSYM     SMH    MOLCAS    ERIS     OPER   

 PROGRAMS   *        TOTAL       INT
 CPU TIMES  *         7.73      7.58
 REAL TIME  *        22.91 SEC
 DISK USED  *       771.70 MB      
 **********************************************************************************************************************************

 Density functional group MM06=M06X+M06C
 Functional: M06X(Automatically generated (new) M06X)                          Gradient terms: 2
 Functional: M06C(Automatically generated (new) M06C)                          Gradient terms: 2
 Use grid at  1800.2


 Exact exchange will be calculated, factor:  0.2700

 Functional: M06X                      Factor:  0.7300
 Functional: M06C                      Factor:  1.0000

 Generated new metagrid on record  1800.2 with target accuracy 1.0D-06 and 66012 points in CPU time    2.0
 Computed new grid on record 1800.1 in CPU time    2.3
  228438 words reserved for DFT integration

 PROGRAM * UKS-SCF (Unrestricted Kohn-Sham)     Authors: W. Meyer, H.-J. Werner, P.J. Knowles, 1993

 NUMBER OF ELECTRONS:      25+   25-    SPACE SYMMETRY=1    SPIN SYMMETRY: Singlet 
 CONVERGENCE THRESHOLDS:    1.00E-05 (Density)    1.00E-06 (Energy)
 MAX. NUMBER OF ITERATIONS:       60
 INTERPOLATION TYPE:            DIIS
 INTERPOLATION STEPS:              2 (START)      1 (STEP)
 LEVEL SHIFTS:                 -0.20 (ALPHA)  -0.20 (BETA) 



 Use fine grid record 1800.2 for energy threshold  1.0D-06
 Orbital guess generated from atomic densities. Full valence occupancy:   25

 Molecular orbital dump at record        2200.2

 Initial alpha occupation  25
 Initial beta  occupation  25

 ITERATION    DDIFF          GRAD             ENERGY        2-EL.EN.            DIPOLE MOMENTS         DIIS
    1      0.000D+00      0.000D+00      -265.04173762    785.592492   -0.52372    0.00000    0.50388    0
    2      0.680D-02      0.320D-02      -265.14983397    772.480135   -0.37606    0.00000    0.28063    1
    3      0.206D-02      0.126D-02      -265.16396368    775.167033   -0.32022    0.00000    0.29643    2
    4      0.810D-03      0.169D-03      -265.16463843    775.006186   -0.31592    0.00000    0.29409    3
    5      0.377D-03      0.763D-04      -265.16476280    774.880198   -0.30131    0.00000    0.28786    4
    6      0.217D-03      0.373D-04      -265.16479117    774.885595   -0.30051    0.00000    0.28945    5
    7      0.481D-04      0.867D-05      -265.16479261    774.871806   -0.30074    0.00000    0.28915    6
    8      0.132D-04      0.310D-05      -265.16479278    774.874793   -0.30052    0.00000    0.28933    7
    9      0.599D-05      0.114D-05      -265.16479281    774.873752   -0.30049    0.00000    0.28924    7
   10      0.204D-05      0.281D-06      -265.16479281    774.874555   -0.30056    0.00000    0.28929    7

 Final alpha occupancy:  25
 Final beta  occupancy:  25

 !UKS STATE 1.1 Energy               -265.164792810074
 Nuclear energy                       270.15500869
 One-electron energy                 -900.80131332
 Two-electron energy                  387.43727735
 Density functional                   -21.95576553     M06X=-27.28839614 M06C= -2.03523635
 Virial quotient                       -0.99516535
 !UKS STATE 1.1 Dipole moment          -0.30055950     0.00000000     0.28928610
 Dipole moment /Debye                  -0.76389602     0.00000000     0.73524376

 Orbital energies for positive spin:

         1.1          2.1          3.1          4.1          5.1          6.1          7.1          8.1          9.1         10.1
    -18.787109    -9.956358    -9.945851    -9.902737    -9.902687    -9.897119    -0.961248    -0.736074    -0.635332    -0.629314

        11.1         12.1         13.1         14.1         15.1         16.1         17.1         18.1         19.1         20.1
     -0.605029    -0.490628    -0.434956    -0.414739    -0.412569    -0.381437    -0.363795    -0.347738    -0.330198    -0.321819

        21.1         22.1         23.1         24.1         25.1         26.1         27.1
     -0.312350    -0.293979    -0.293320    -0.246457    -0.202475     0.078801     0.114319

 Orbital energies for negative spin:

         1.1          2.1          3.1          4.1          5.1          6.1          7.1          8.1          9.1         10.1
    -18.787109    -9.956358    -9.945851    -9.902737    -9.902687    -9.897119    -0.961248    -0.736074    -0.635332    -0.629314

        11.1         12.1         13.1         14.1         15.1         16.1         17.1         18.1         19.1         20.1
     -0.605029    -0.490628    -0.434956    -0.414739    -0.412569    -0.381437    -0.363795    -0.347738    -0.330198    -0.321819

        21.1         22.1         23.1         24.1         25.1         26.1         27.1
     -0.312350    -0.293979    -0.293320    -0.246457    -0.202475     0.078801     0.114319

 HOMO     25.1    -0.202475 =      -5.5096eV
 LUMO     26.1     0.078801 =       2.1443eV
 LUMO-HOMO         0.281276 =       7.6539eV

 EXPECTATION VALUE OF S**2:             0.00000000

 Natural orbitals saved to record    2200.2 (Orbital set 3)

 Orbital spaces for UNO-CAS (Min. occupation: 0.020  Max. occupation: 1.980):

 Closed:       25
 Active:        0


 **********************************************************************************************************************************
 DATASETS  * FILE   NREC   LENGTH (MB)   RECORD NAMES
              1      20      196.57       500      610      700      900      950      970     1000      129      960     1100   
                                          VAR    BASINP    GEOM    SYMINP    ZMAT    AOBASIS   BASIS     P2S    ABASIS      S 
                                         1400     1410     1200     1210     1080     1600     1650     1300     1700     1800   
                                           T        V       H0       H01     AOSYM     SMH    MOLCAS    ERIS     OPER     GRID   

              2       5        3.91       700     1000      520     1800     2200   
                                         GEOM     BASIS   MCVARS    GRID      UKS  

 PROGRAMS   *        TOTAL       UKS       INT
 CPU TIMES  *       164.27    156.54      7.58
 REAL TIME  *       257.04 SEC
 DISK USED  *       771.70 MB      
 **********************************************************************************************************************************


 PROGRAM * Intrinsic Basis Bonding Analysis (IBBA)          Author: G. Knizia

 Molecular orbitals read from record     2200.2  Type=UKS/ALPHA (state 1.1)
 Fock matrix read from record            2200.2  Type=UKS/TOTAL (state 1.1)
 Orbital energies read from record       2200.2  Type=UKS/ALPHA (state 1.1)
 Density matrix read from record         2200.2  Type=UKS/CHARGE (state 1.1)

 Number of core orbitals:           6 (   6 )
 Number of closed-shell orbitals:  19 (  19 )

 Basis set MINAO-AUTO-PP generated.      Number of basis functions:   42 

 Polarized AO type:                A = (O Ot + (1-O)(1-Ot)) P12
 Orthogonalization method:         Symmetric (Loewdin)
 Localization functional:          L = sum[A,i] <i|n_A|i>^4 -> max

 Localization group 1:  25 orbitals, occupancy  2.000
 Iterative localization: IB/PM,    7 iter; Final gradient 0.26E-08

 Bond order analysis:       [THRPRINT= 0.020]

   CEN ATOM   CEN ATOM     WIBERG.BO      RENORM.BO
     1   C  -   2   C       0.994216       0.995130
     1   C  -   5   H       0.966338       0.983959
     1   C  -   6   H       0.962101       0.979193
     1   C  -   7   H       0.962101       0.979193

     2   C  -   1   C       0.994216       0.995130
     2   C  -  12   C       0.989743       0.971815
     2   C  -  11   C       0.989743       0.971815
     2   C  -   3   O       0.930744       0.936241

     3   O  -   4   C       1.003136       1.018711
     3   O  -   2   C       0.930744       0.936241
     3   O  -   9   H       0.037035       0.021457
     3   O  -  10   H       0.037035       0.021457
     3   O  -  12   C       0.027315       0.014237
     3   O  -  11   C       0.027315       0.014237

     4   C  -   3   O       1.003136       1.018711
     4   C  -   8   H       0.959304       0.976133
     4   C  -   9   H       0.948974       0.929660
     4   C  -  10   H       0.948974       0.929660

     5   H  -   1   C       0.966338       0.983959

     6   H  -   1   C       0.962101       0.979193

     7   H  -   1   C       0.962101       0.979193

     8   H  -   4   C       0.959304       0.976133

     9   H  -   4   C       0.948974       0.929660
     9   H  -   3   O       0.037035       0.021457

    10   H  -   4   C       0.948974       0.929660
    10   H  -   3   O       0.037035       0.021457

    11   C  -   2   C       0.989743       0.971815
    11   C  -  17   H       0.963664       0.978965
    11   C  -  15   H       0.962657       0.985296
    11   C  -  13   H       0.962408       0.979249
    11   C  -   3   O       0.027315       0.014237

    12   C  -   2   C       0.989743       0.971815
    12   C  -  18   H       0.963664       0.978965
    12   C  -  16   H       0.962657       0.985296
    12   C  -  14   H       0.962408       0.979249
    12   C  -   3   O       0.027315       0.014237

    13   H  -  11   C       0.962408       0.979249

    14   H  -  12   C       0.962408       0.979249

    15   H  -  11   C       0.962657       0.985296

    16   H  -  12   C       0.962657       0.985296

    17   H  -  11   C       0.963664       0.978965

    18   H  -  12   C       0.963664       0.978965


 Valency analysis:

   CEN ATOM   TOT.VALENCE
     1   C       3.950258
     2   C       3.936340
     3   O       2.137695
     4   C       3.886314
     5   H       0.988372
     6   H       0.986219
     7   H       0.986219
     8   H       0.983001
     9   H       0.992185
    10   H       0.992185
    11   C       3.948979
    12   C       3.948979
    13   H       0.986505
    14   H       0.986505
    15   H       0.986373
    16   H       0.986373
    17   H       0.988172
    18   H       0.988172

 Total charge composition:

   CEN ATOM         s          p       ELECTRONS ->P.CHARGE
     1   C       2.99646    3.34904      6.34551   -0.34551
     2   C       2.90209    2.83727      5.73936    0.26064
     3   O       3.58439    4.78509      8.36948   -0.36948
     4   C       2.98277    3.16220      6.14497   -0.14497
     5   H       0.89217                 0.89217    0.10783
     6   H       0.88261                 0.88261    0.11739
     7   H       0.88261                 0.88261    0.11739
     8   H       0.86962                 0.86962    0.13038
     9   H       0.91160                 0.91160    0.08840
    10   H       0.91160                 0.91160    0.08840
    11   C       2.99595    3.37096      6.36690   -0.36690
    12   C       2.99595    3.37096      6.36690   -0.36690
    13   H       0.88383                 0.88383    0.11617
    14   H       0.88383                 0.88383    0.11617
    15   H       0.88326                 0.88326    0.11674
    16   H       0.88326                 0.88326    0.11674
    17   H       0.89124                 0.89124    0.10876
    18   H       0.89124                 0.89124    0.10876

 Total charge composition, AO contributions:

   CEN ATOM SHL      SPHERICAL COMPONENTS
     1   C  1s       1.99255
     1   C  2s       1.00391
     1   C  2p       1.14515    1.15710    1.04680

     2   C  1s       1.99404
     2   C  2s       0.90805
     2   C  2p       0.80447    1.01571    1.01709

     3   O  1s       1.99760
     3   O  2s       1.58678
     3   O  2p       1.43506    1.90190    1.44813

     4   C  1s       1.99311
     4   C  2s       0.98966
     4   C  2p       1.15029    1.15496    0.85695

     5   H  1s       0.89217

     6   H  1s       0.88261

     7   H  1s       0.88261

     8   H  1s       0.86962

     9   H  1s       0.91160

    10   H  1s       0.91160

    11   C  1s       1.99260
    11   C  2s       1.00335
    11   C  2p       1.13520    1.09555    1.14020

    12   C  1s       1.99260
    12   C  2s       1.00335
    12   C  2p       1.13520    1.09555    1.14020

    13   H  1s       0.88383

    14   H  1s       0.88383

    15   H  1s       0.88326

    16   H  1s       0.88326

    17   H  1s       0.89124

    18   H  1s       0.89124

 Summary of localized orbital composition:   [THRPRINT= 0.020]

   ORB  GRP  ORB.ENERGY      CENTERS/CHARGES
     1   1   -18.653514      O  3   2.000
     2   1    -9.869995      C  2   2.000
     3   1    -9.843554      C  4   2.000
     4   1    -9.795672      C 12   2.000
     5   1    -9.795672      C 11   2.000
     6   1    -9.789399      C  1   2.000
     7   1    -0.709429      O  3   1.238   C  4   0.754
     8   1    -0.682949      O  3   1.267   C  2   0.708   (other: 0.025)
     9   1    -0.521641      C 11   1.014   C  2   0.968
    10   1    -0.521641      C 12   1.014   C  2   0.968
    11   1    -0.518723      C  1   0.996   C  2   0.980   (other: 0.024)
    12   1    -0.478478      O  3   1.957   (other: 0.043)
    13   1    -0.460201      C  4   1.109   H 10   0.889
    14   1    -0.460201      C  4   1.109   H  9   0.889
    15   1    -0.457156      C  4   1.130   H  8   0.861
    16   1    -0.448242      C 11   1.109   H 15   0.874
    17   1    -0.448242      C 12   1.109   H 16   0.874
    18   1    -0.446512      C 12   1.106   H 18   0.882
    19   1    -0.446512      C 11   1.106   H 17   0.882
    20   1    -0.444025      C  1   1.102   H  5   0.884
    21   1    -0.442076      C 11   1.114   H 13   0.875
    22   1    -0.442076      C 12   1.114   H 14   0.875
    23   1    -0.436659      C  1   1.115   H  7   0.873
    24   1    -0.436659      C  1   1.115   H  6   0.873
    25   1    -0.255896      O  3   1.902   C  4   0.022   C  2   0.020   (other: 0.057)

 Localized orbitals saved to record      2200.2  (orbital set 4)


 **********************************************************************************************************************************
 DATASETS  * FILE   NREC   LENGTH (MB)   RECORD NAMES
              1      20      196.57       500      610      700      900      950      970     1000      129      960     1100   
                                          VAR    BASINP    GEOM    SYMINP    ZMAT    AOBASIS   BASIS     P2S    ABASIS      S 
                                         1400     1410     1200     1210     1080     1600     1650     1300     1700     1800   
                                           T        V       H0       H01     AOSYM     SMH    MOLCAS    ERIS     OPER     GRID   

              2       5        4.08       700     1000      520     1800     2200   
                                         GEOM     BASIS   MCVARS    GRID      UKS  

 PROGRAMS   *        TOTAL      IBBA       UKS       INT
 CPU TIMES  *       164.33      0.06    156.54      7.58
 REAL TIME  *       257.32 SEC
 DISK USED  *       771.70 MB      
 **********************************************************************************************************************************
 Molecular orbitals read from record     2200.2  Type=UKS/LOCAL(IBO)  
 Occupation numbers read from record     2200.2  Type=UKS/LOCAL(IBO)  
 Orbital energies read from record       2200.2  Type=UKS/LOCAL(IBO)  
 Redundancy group numbers read from rec  2200.2  Type=UKS/BETA (state 1.1)

 IBBA/SVP energy=      0.000000000000

        UKS-SCF 
   -265.16479281
 **********************************************************************************************************************************
 Molpro calculation terminated
