
 Primary working directories    : /local
 Secondary working directories  : /local
 Wavefunction directory         : /local/
 Main file repository           : /local/

 SHA1      : b4a5b34a9e711420743f49e6833241d17c61fb3c
 NAME      : 2099.9.b4a5b34
 ARCHNAME  : linux/x86_64_openmp
 FC        : /cm/shared/languages/GCC-6.1/bin/gfortran
 BLASLIB   : -lblas
 id        : simonbennie

 Nodes     nprocs
 node34-016    1

 Using customized tuning parameters: mindgm=1; mindgv=20; mindgc=4; mindgr=1; noblas=0; minvec=7
 default implementation of scratch files=df  

 memory,500,m
 geomtyp=xyz
 nosym
 noorient
 geometry={
 C         -1.53233        0.02247        0.00000
 C         -0.00192        0.01421        0.00000
 O          0.37239        1.40356        0.00000
 H          1.34248        1.44036        0.00000
 H         -1.92991       -0.99819        0.00000
 H         -1.90797        0.54382       -0.88653
 H         -1.90797        0.54382        0.88653
 C          0.54303       -0.66466       -1.26580
 C          0.54303       -0.66466        1.26580
 H          0.17836       -0.14752       -2.15943
 H          0.17836       -0.14752        2.15943
 H          0.23752       -1.71600       -1.32280
 H          0.23752       -1.71600        1.32280
 H          1.64084       -0.63767       -1.28032
 H          1.64084       -0.63767        1.28032
 }
 basis={ default,avdz }
 {ks,B-VWN,direct;wf,42,1,0}
 {ibba,bonds=1}

 Variables initialized (895), CPU time= 0.01 sec
 Commands  initialized (725), CPU time= 0.01 sec, 591 directives.
 Default parameters read. Elapsed time= 0.09 sec

 Checking input...
 Passed
1


                                         ***  PROGRAM SYSTEM MOLPRO  ***
                                       Copyright, TTI GmbH Stuttgart, 2015
                                    Version 2099.9 linked May 26 2017 16:03:21


 **********************************************************************************************************************************
 LABEL *                                                                                 
  64 bit serial version                                                                  DATE: 12-Jun-17          TIME: 16:35:25  
 **********************************************************************************************************************************

 SHA1:             b4a5b34a9e711420743f49e6833241d17c61fb3c
 **********************************************************************************************************************************
 SETTING GEOMTYP        =    XYZ

 Variable memory set to  500000000 words,  buffer space 

 ZSYMEL=NOSYM

 SETTING BASIS          =    AVDZ


 Recomputing integrals since basis changed


 Using spherical harmonics

 Library entry C      S aug-cc-pVDZ          selected for orbital group  1
 Library entry C      P aug-cc-pVDZ          selected for orbital group  1
 Library entry C      D aug-cc-pVDZ          selected for orbital group  1
 Library entry O      S aug-cc-pVDZ          selected for orbital group  2
 Library entry O      P aug-cc-pVDZ          selected for orbital group  2
 Library entry O      D aug-cc-pVDZ          selected for orbital group  2
 Library entry H      S aug-cc-pVDZ          selected for orbital group  3
 Library entry H      P aug-cc-pVDZ          selected for orbital group  3


 PROGRAM * SEWARD (Integral evaluation for generally contracted gaussian basis sets)     Author: Roland Lindh, 1990

 Geometry written to block  1 of record 700


 Point group  C1  



 ATOMIC COORDINATES

 NR  ATOM    CHARGE       X              Y              Z

   1  C       6.00   -2.895684032    0.042462146    0.000000000
   2  C       6.00   -0.003628274    0.026853008    0.000000000
   3  O       8.00    0.703715112    2.652343999    0.000000000
   4  H       1.00    2.536919528    2.721885921    0.000000000
   5  H       1.00   -3.647001345   -1.886305720    0.000000000
   6  H       1.00   -3.605540754    1.027670861   -1.675298901
   7  H       1.00   -3.605540754    1.027670861    1.675298901
   8  C       6.00    1.026177977   -1.256025366   -2.392015328
   9  C       6.00    1.026177977   -1.256025366    2.392015328
  10  H       1.00    0.337051552   -0.278772398   -4.080731285
  11  H       1.00    0.337051552   -0.278772398    4.080731285
  12  H       1.00    0.448847749   -3.242770030   -2.499729718
  13  H       1.00    0.448847749   -3.242770030    2.499729718
  14  H       1.00    3.100738214   -1.205021658   -2.419454152
  15  H       1.00    3.100738214   -1.205021658    2.419454152

 Bond lengths in Bohr (Angstrom)

 1-2  2.892097881  1-5  2.069933136  1-6  2.069096224  1-7  2.069096224  2-3  2.719106031
     ( 1.530432290)     ( 1.095361444)     ( 1.094918569)     ( 1.094918569)     ( 1.438888946)

  2- 8  2.903104402   2- 9  2.903104402   3- 4  1.834522965   8-10  2.069222119   8-12  2.071730422
       ( 1.536256691)       ( 1.536256691)       ( 0.970787746)       ( 1.094985190)       ( 1.096312526)

  8-14  2.075368508   9-11  2.069222119   9-13  2.071730422   9-15  2.075368508
       ( 1.098237719)       ( 1.094985190)       ( 1.096312526)       ( 1.098237719)

 Bond angles

  1-2-3  104.76902697   1-2-8  110.92255387   1-2-9  110.92255387   2-1-5  110.97328220

  2- 1- 6  110.22090701   2- 1- 7  110.22090701   2- 3- 4  107.25071562   2- 8-10  110.21836376

  2- 8-12  111.57747468   2- 8-14  110.77023896   2- 9-11  110.21836376   2- 9-13  111.57747468

  2- 9-15  110.77023896   3- 2- 8  109.53648747   3- 2- 9  109.53648747   5- 1- 6  108.61190457

  5- 1- 7  108.61190457   6- 1- 7  108.12870271   8- 2- 9  110.96453384  10- 8-12  108.52192632

 10- 8-14  108.08997829  11- 9-13  108.52192632  11- 9-15  108.08997829  12- 8-14  107.54424578

 13- 9-15  107.54424578

 NUCLEAR CHARGE:                   42
 NUMBER OF PRIMITIVE AOS:         295
 NUMBER OF SYMMETRY AOS:          285
 NUMBER OF CONTRACTIONS:          205   ( 205A   )
 NUMBER OF CORE ORBITALS:           5   (   5A   )
 NUMBER OF VALENCE ORBITALS:       30   (  30A   )


 NUCLEAR REPULSION ENERGY  198.77359127


 Eigenvalues of metric

         1 0.151E-04 0.552E-04 0.579E-04 0.110E-03 0.111E-03 0.217E-03 0.237E-03 0.259E-03


 Contracted 2-electron integrals neglected if value below      1.0D-12
 AO integral compression algorithm  1   Integral accuracy      1.0D-12

     1203.503 MB (compressed) written to integral file ( 61.3%)


 NUMBER OF SORTED TWO-ELECTRON INTEGRALS:  222932170.     BUFFER LENGTH:  32768
 NUMBER OF SEGMENTS:  14  SEGMENT LENGTH:   15999503      RECORD LENGTH: 524288

 Memory used in sort:      16.56 MW

 SORT1 READ   245224724. AND WROTE   218324786. INTEGRALS IN    630 RECORDS. CPU TIME:     3.47 SEC, REAL TIME:    11.77 SEC
 SORT2 READ   218324786. AND WROTE   222932170. INTEGRALS IN   4591 RECORDS. CPU TIME:     5.07 SEC, REAL TIME:     7.39 SEC

 FILE SIZES:   FILE 1:  1235.3 MBYTE,  FILE 4:  2642.4 MBYTE,   TOTAL:   3877.7 MBYTE

 OPERATOR DM      FOR CENTER  0  COORDINATES:    0.000000    0.000000    0.000000


 **********************************************************************************************************************************
 DATASETS  * FILE   NREC   LENGTH (MB)   RECORD NAMES
              1      19     1149.90       500      610      700      900      950      970     1000      129      960     1100   
                                          VAR    BASINP    GEOM    SYMINP    ZMAT    AOBASIS   BASIS     P2S    ABASIS      S 
                                         1400     1410     1200     1210     1080     1600     1650     1300     1700   
                                           T        V       H0       H01     AOSYM     SMH    MOLCAS    ERIS     OPER   

 PROGRAMS   *        TOTAL       INT
 CPU TIMES  *        21.71     21.56
 REAL TIME  *        45.31 SEC
 DISK USED  *         3.88 GB      
 **********************************************************************************************************************************

 Density functional group B-VWN=B88+VWN5
 Functional: B88(Automatically generated (new) B88)                            Gradient terms: 1
 Functional: VWN5(Automatically generated (new) VWN5)                          Gradient terms: 0
 Use grid at  1800.2

 Functional: B88                       Factor:  1.0000
 Functional: VWN5                      Factor:  1.0000

 Generated new metagrid on record  1800.2 with target accuracy 1.0D-06 and 53396 points in CPU time    1.7
 Computed new grid on record 1800.1 in CPU time    1.9
  167289 words reserved for DFT integration

 PROGRAM * RKS-SCF (Restricted closed shell Kohn-Sham)     Authors: W. Meyer, H.-J. Werner, P.J. Knowles, 1993

 NUMBER OF ELECTRONS:      21+   21-    SPACE SYMMETRY=1    SPIN SYMMETRY: Singlet 
 CONVERGENCE THRESHOLDS:    1.00E-05 (Density)    1.00E-06 (Energy)
 MAX. NUMBER OF ITERATIONS:       60
 INTERPOLATION TYPE:            DIIS
 INTERPOLATION STEPS:              2 (START)      1 (STEP)
 LEVEL SHIFTS:                  0.00 (CLOSED)  0.00 (OPEN) 



 Use fine grid record 1800.2 for energy threshold  1.0D-06
 Orbital guess generated from atomic densities. Full valence occupancy:   35

 Molecular orbital dump at record        2100.2

 Initial occupancy:  21

 ITERATION    DDIFF          GRAD             ENERGY        2-EL.EN.            DIPOLE MOMENTS         DIIS   ORB.
    1      0.000D+00      0.000D+00      -234.55600542    640.202224    0.69454   -0.77848    0.00000    0    start
    2      0.000D+00      0.871D-02      -233.96704495    588.549200   -0.74029    0.15708    0.00000    1    diag
    3      0.403D-01      0.148D-01      -234.84223278    624.174362    0.41277   -0.77968    0.00000    2    diag
    4      0.232D-01      0.238D-02      -234.85877116    622.164084    0.32039   -0.42429    0.00000    3    diag
    5      0.381D-02      0.805D-03      -234.86067244    621.742161    0.30829   -0.54940    0.00000    4    diag
    6      0.152D-02      0.279D-03      -234.86093207    621.974583    0.31289   -0.52287    0.00000    5    diag
    7      0.444D-03      0.708D-04      -234.86094766    621.965145    0.31625   -0.52035    0.00000    6    diag
    8      0.175D-03      0.105D-04      -234.86094812    621.983299    0.31527   -0.52465    0.00000    7    diag
    9      0.224D-04      0.293D-05      -234.86094816    621.984112    0.31568   -0.52352    0.00000    8    diag
   10      0.555D-05      0.429D-06      -234.86094816    621.984252    0.31575   -0.52354    0.00000    0    orth

 Final occupancy:  21

 !RKS STATE 1.1 Energy               -234.860948155491
 Nuclear energy                       198.77359127
 One-electron energy                 -709.37127517
 Two-electron energy                  310.99212581
 Density functional                   -35.25539007     B88=-32.59986407 VWN5= -2.65552600
 Virial quotient                       -1.01050888
 !RKS STATE 1.1 Dipole moment           0.31575379    -0.52354127     0.00000000
 Dipole moment /Debye                   0.80251351    -1.33062203     0.00000000

 Orbital energies:

         1.1          2.1          3.1          4.1          5.1          6.1          7.1          8.1          9.1         10.1
    -18.828414   -10.015688    -9.953494    -9.953467    -9.948609    -0.944577    -0.727355    -0.638413    -0.637576    -0.526787

        11.1         12.1         13.1         14.1         15.1         16.1         17.1         18.1         19.1         20.1
     -0.452088    -0.416234    -0.413485    -0.380330    -0.367381    -0.352095    -0.339564    -0.326725    -0.320675    -0.293168

        21.1         22.1         23.1
     -0.239667    -0.033182    -0.005967

 HOMO     21.1    -0.239667 =      -6.5217eV
 LUMO     22.1    -0.033182 =      -0.9029eV
 LUMO-HOMO         0.206485 =       5.6187eV


 **********************************************************************************************************************************
 DATASETS  * FILE   NREC   LENGTH (MB)   RECORD NAMES
              1      20     1151.61       500      610      700      900      950      970     1000      129      960     1100   
                                          VAR    BASINP    GEOM    SYMINP    ZMAT    AOBASIS   BASIS     P2S    ABASIS      S 
                                         1400     1410     1200     1210     1080     1600     1650     1300     1700     1800   
                                           T        V       H0       H01     AOSYM     SMH    MOLCAS    ERIS     OPER     GRID   

              2       5        3.87       700     1000      520     1800     2100   
                                         GEOM     BASIS   MCVARS    GRID      RKS  

 PROGRAMS   *        TOTAL        KS       INT
 CPU TIMES  *        71.83     50.12     21.56
 REAL TIME  *       117.79 SEC
 DISK USED  *         3.88 GB      
 **********************************************************************************************************************************


 PROGRAM * Intrinsic Basis Bonding Analysis (IBBA)          Author: G. Knizia

 Molecular orbitals read from record     2100.2  Type=RKS/CANONICAL (state 1.1)
 Fock matrix read from record            2100.2  Type=RKS/TOTAL (state 1.1)
 Orbital energies read from record       2100.2  Type=RKS/CANONICAL (state 1.1)
 Density matrix read from record         2100.2  Type=RKS/CHARGE (state 1.1)

 Number of core orbitals:           5 (   5 )
 Number of closed-shell orbitals:  16 (  16 )

 Basis set MINAO-AUTO-PP generated.      Number of basis functions:   35 

 Polarized AO type:                A = (O Ot + (1-O)(1-Ot)) P12
 Orthogonalization method:         Symmetric (Loewdin)
 Localization functional:          L = sum[A,i] <i|n_A|i>^4 -> max

 Localization group 1:  21 orbitals, occupancy  2.000
 Iterative localization: IB/PM,    7 iter; Final gradient 0.24E-08

 Bond order analysis:       [THRPRINT= 0.020]

   CEN ATOM   CEN ATOM     WIBERG.BO      RENORM.BO
     1   C  -   2   C       0.996331       0.994290
     1   C  -   5   H       0.964068       0.986701
     1   C  -   6   H       0.959512       0.980861
     1   C  -   7   H       0.959512       0.980861

     2   C  -   1   C       0.996331       0.994290
     2   C  -   9   C       0.994949       0.975364
     2   C  -   8   C       0.994949       0.975364
     2   C  -   3   O       0.933345       0.948788

     3   O  -   2   C       0.933345       0.948788
     3   O  -   4   H       0.863844       0.974845
     3   O  -   9   C       0.029168       0.014902
     3   O  -   8   C       0.029168       0.014902

     4   H  -   3   O       0.863844       0.974845

     5   H  -   1   C       0.964068       0.986701

     6   H  -   1   C       0.959512       0.980861

     7   H  -   1   C       0.959512       0.980861

     8   C  -   2   C       0.994949       0.975364
     8   C  -  14   H       0.963498       0.981665
     8   C  -  10   H       0.960074       0.980688
     8   C  -  12   H       0.959432       0.979843
     8   C  -   3   O       0.029168       0.014902

     9   C  -   2   C       0.994949       0.975364
     9   C  -  15   H       0.963498       0.981665
     9   C  -  11   H       0.960074       0.980688
     9   C  -  13   H       0.959432       0.979843
     9   C  -   3   O       0.029168       0.014902

    10   H  -   8   C       0.960074       0.980688

    11   H  -   9   C       0.960074       0.980688

    12   H  -   8   C       0.959432       0.979843

    13   H  -   9   C       0.959432       0.979843

    14   H  -   8   C       0.963498       0.981665

    15   H  -   9   C       0.963498       0.981665


 Valency analysis:

   CEN ATOM   TOT.VALENCE
     1   C       3.940988
     2   C       3.929653
     3   O       1.926107
     4   H       0.884568
     5   H       0.983064
     6   H       0.980552
     7   H       0.980552
     8   C       3.943534
     9   C       3.943534
    10   H       0.980628
    11   H       0.980628
    12   H       0.982473
    13   H       0.982473
    14   H       0.984457
    15   H       0.984457

 Total charge composition:

   CEN ATOM         s          p       ELECTRONS ->P.CHARGE
     1   C       3.04436    3.35642      6.40079   -0.40079
     2   C       2.94410    2.80100      5.74510    0.25490
     3   O       3.65563    4.91175      8.56737   -0.56737
     4   H       0.66025                 0.66025    0.33975
     5   H       0.86986                 0.86986    0.13014
     6   H       0.86054                 0.86054    0.13946
     7   H       0.86054                 0.86054    0.13946
     8   C       3.05119    3.36282      6.41402   -0.41402
     9   C       3.05119    3.36282      6.41402   -0.41402
    10   H       0.86082                 0.86082    0.13918
    11   H       0.86082                 0.86082    0.13918
    12   H       0.86761                 0.86761    0.13239
    13   H       0.86761                 0.86761    0.13239
    14   H       0.87533                 0.87533    0.12467
    15   H       0.87533                 0.87533    0.12467

 Total charge composition, AO contributions:

   CEN ATOM SHL      SPHERICAL COMPONENTS
     1   C  1s       1.99127
     1   C  2s       1.05309
     1   C  2p       1.03411    1.15470    1.16760

     2   C  1s       1.99289
     2   C  2s       0.95121
     2   C  2p       1.00659    0.78407    1.01034

     3   O  1s       1.99718
     3   O  2s       1.65845
     3   O  2p       1.46782    1.49064    1.95329

     4   H  1s       0.66025

     5   H  1s       0.86986

     6   H  1s       0.86054

     7   H  1s       0.86054

     8   C  1s       1.99137
     8   C  2s       1.05982
     8   C  2p       1.13769    1.13659    1.08854

     9   C  1s       1.99137
     9   C  2s       1.05982
     9   C  2p       1.13769    1.13659    1.08854

    10   H  1s       0.86082

    11   H  1s       0.86082

    12   H  1s       0.86761

    13   H  1s       0.86761

    14   H  1s       0.87533

    15   H  1s       0.87533

 Summary of localized orbital composition:   [THRPRINT= 0.020]

   ORB  GRP  ORB.ENERGY      CENTERS/CHARGES
     1   1   -18.671850      O  3   2.000
     2   1    -9.925549      C  2   2.000
     3   1    -9.840887      C  8   2.000
     4   1    -9.840887      C  9   2.000
     5   1    -9.835248      C  1   2.000
     6   1    -0.711246      O  3   1.342   H  4   0.648
     7   1    -0.669073      O  3   1.287   C  2   0.694
     8   1    -0.532009      C  9   1.006   C  2   0.979
     9   1    -0.532009      C  8   1.006   C  2   0.979
    10   1    -0.531716      C  1   0.989   C  2   0.986   (other: 0.024)
    11   1    -0.528939      O  3   1.981
    12   1    -0.470111      C  9   1.128   H 13   0.858
    13   1    -0.470111      C  8   1.128   H 12   0.858
    14   1    -0.468169      C  8   1.120   H 14   0.868
    15   1    -0.468169      C  9   1.120   H 15   0.868
    16   1    -0.466200      C  1   1.123   H  5   0.863
    17   1    -0.464135      C  9   1.137   H 11   0.853
    18   1    -0.464135      C  8   1.137   H 10   0.853
    19   1    -0.459825      C  1   1.136   H  6   0.853
    20   1    -0.459825      C  1   1.136   H  7   0.853
    21   1    -0.265700      O  3   1.953   (other: 0.047)

 Localized orbitals saved to record      2100.2  (orbital set 2)


 **********************************************************************************************************************************
 DATASETS  * FILE   NREC   LENGTH (MB)   RECORD NAMES
              1      20     1151.61       500      610      700      900      950      970     1000      129      960     1100   
                                          VAR    BASINP    GEOM    SYMINP    ZMAT    AOBASIS   BASIS     P2S    ABASIS      S 
                                         1400     1410     1200     1210     1080     1600     1650     1300     1700     1800   
                                           T        V       H0       H01     AOSYM     SMH    MOLCAS    ERIS     OPER     GRID   

              2       5        4.21       700     1000      520     1800     2100   
                                         GEOM     BASIS   MCVARS    GRID      RKS  

 PROGRAMS   *        TOTAL      IBBA        KS       INT
 CPU TIMES  *        71.90      0.06     50.12     21.56
 REAL TIME  *       117.96 SEC
 DISK USED  *         3.88 GB      
 **********************************************************************************************************************************
 Molecular orbitals read from record     2100.2  Type=RKS/LOCAL(IBO)  
 Occupation numbers read from record     2100.2  Type=RKS/LOCAL(IBO)  
 Orbital energies read from record       2100.2  Type=RKS/LOCAL(IBO)  
 Redundancy group numbers read from rec  2100.2  Type=RKS/LOCAL(IBO)  

 IBBA/aug-cc-pVDZ energy=      0.000000000000

        KS-SCF  
   -234.86094816
 **********************************************************************************************************************************
 Molpro calculation terminated
