
 Primary working directories    : /local
 Secondary working directories  : /local
 Wavefunction directory         : /local/
 Main file repository           : /local/

 SHA1      : b4a5b34a9e711420743f49e6833241d17c61fb3c
 NAME      : 2099.9.b4a5b34
 ARCHNAME  : linux/x86_64_openmp
 FC        : /cm/shared/languages/GCC-6.1/bin/gfortran
 BLASLIB   : -lblas
 id        : simonbennie

 Nodes     nprocs
 node33-045    1

 Using customized tuning parameters: mindgm=1; mindgv=20; mindgc=4; mindgr=1; noblas=0; minvec=7
 default implementation of scratch files=df  

 memory,500,m
 geomtyp=xyz
 nosym
 noorient
 geometry={
 C         -1.53233        0.02247        0.00000
 C         -0.00192        0.01421        0.00000
 O          0.37239        1.40356        0.00000
 H          1.34248        1.44036        0.00000
 H         -1.92991       -0.99819        0.00000
 H         -1.90797        0.54382       -0.88653
 H         -1.90797        0.54382        0.88653
 C          0.54303       -0.66466       -1.26580
 C          0.54303       -0.66466        1.26580
 H          0.17836       -0.14752       -2.15943
 H          0.17836       -0.14752        2.15943
 H          0.23752       -1.71600       -1.32280
 H          0.23752       -1.71600        1.32280
 H          1.64084       -0.63767       -1.28032
 H          1.64084       -0.63767        1.28032
 }
 basis={ default,SV(P) }
 {ks,VWN80,direct;wf,42,1,0}
 {ibba,bonds=1}

 Variables initialized (895), CPU time= 0.00 sec
 Commands  initialized (725), CPU time= 0.02 sec, 591 directives.
 Default parameters read. Elapsed time= 0.12 sec

 Checking input...
 Passed
1


                                         ***  PROGRAM SYSTEM MOLPRO  ***
                                       Copyright, TTI GmbH Stuttgart, 2015
                                    Version 2099.9 linked May 26 2017 16:03:21


 **********************************************************************************************************************************
 LABEL *                                                                                 
  64 bit serial version                                                                  DATE: 12-Jun-17          TIME: 20:32:17  
 **********************************************************************************************************************************

 SHA1:             b4a5b34a9e711420743f49e6833241d17c61fb3c
 **********************************************************************************************************************************
 SETTING GEOMTYP        =    XYZ

 Variable memory set to  500000000 words,  buffer space 

 ZSYMEL=NOSYM

 SETTING BASIS          =    SV(P)


 Recomputing integrals since basis changed


 Using spherical harmonics

 Library entry C      S def2-SV(P)           selected for orbital group  1
 Library entry C      P def2-SV(P)           selected for orbital group  1
 Library entry C      D def2-SV(P)           selected for orbital group  1
 Library entry O      S def2-SV(P)           selected for orbital group  2
 Library entry O      P def2-SV(P)           selected for orbital group  2
 Library entry O      D def2-SV(P)           selected for orbital group  2
 Library entry H      S def2-SV(P)           selected for orbital group  3


 PROGRAM * SEWARD (Integral evaluation for generally contracted gaussian basis sets)     Author: Roland Lindh, 1990

 Geometry written to block  1 of record 700


 Point group  C1  



 ATOMIC COORDINATES

 NR  ATOM    CHARGE       X              Y              Z

   1  C       6.00   -2.895684032    0.042462146    0.000000000
   2  C       6.00   -0.003628274    0.026853008    0.000000000
   3  O       8.00    0.703715112    2.652343999    0.000000000
   4  H       1.00    2.536919528    2.721885921    0.000000000
   5  H       1.00   -3.647001345   -1.886305720    0.000000000
   6  H       1.00   -3.605540754    1.027670861   -1.675298901
   7  H       1.00   -3.605540754    1.027670861    1.675298901
   8  C       6.00    1.026177977   -1.256025366   -2.392015328
   9  C       6.00    1.026177977   -1.256025366    2.392015328
  10  H       1.00    0.337051552   -0.278772398   -4.080731285
  11  H       1.00    0.337051552   -0.278772398    4.080731285
  12  H       1.00    0.448847749   -3.242770030   -2.499729718
  13  H       1.00    0.448847749   -3.242770030    2.499729718
  14  H       1.00    3.100738214   -1.205021658   -2.419454152
  15  H       1.00    3.100738214   -1.205021658    2.419454152

 Bond lengths in Bohr (Angstrom)

 1-2  2.892097881  1-5  2.069933136  1-6  2.069096224  1-7  2.069096224  2-3  2.719106031
     ( 1.530432290)     ( 1.095361444)     ( 1.094918569)     ( 1.094918569)     ( 1.438888946)

  2- 8  2.903104402   2- 9  2.903104402   3- 4  1.834522965   8-10  2.069222119   8-12  2.071730422
       ( 1.536256691)       ( 1.536256691)       ( 0.970787746)       ( 1.094985190)       ( 1.096312526)

  8-14  2.075368508   9-11  2.069222119   9-13  2.071730422   9-15  2.075368508
       ( 1.098237719)       ( 1.094985190)       ( 1.096312526)       ( 1.098237719)

 Bond angles

  1-2-3  104.76902697   1-2-8  110.92255387   1-2-9  110.92255387   2-1-5  110.97328220

  2- 1- 6  110.22090701   2- 1- 7  110.22090701   2- 3- 4  107.25071562   2- 8-10  110.21836376

  2- 8-12  111.57747468   2- 8-14  110.77023896   2- 9-11  110.21836376   2- 9-13  111.57747468

  2- 9-15  110.77023896   3- 2- 8  109.53648747   3- 2- 9  109.53648747   5- 1- 6  108.61190457

  5- 1- 7  108.61190457   6- 1- 7  108.12870271   8- 2- 9  110.96453384  10- 8-12  108.52192632

 10- 8-14  108.08997829  11- 9-13  108.52192632  11- 9-15  108.08997829  12- 8-14  107.54424578

 13- 9-15  107.54424578

 NUCLEAR CHARGE:                   42
 NUMBER OF PRIMITIVE AOS:         165
 NUMBER OF SYMMETRY AOS:          160
 NUMBER OF CONTRACTIONS:           90   (  90A   )
 NUMBER OF CORE ORBITALS:           5   (   5A   )
 NUMBER OF VALENCE ORBITALS:       30   (  30A   )


 NUCLEAR REPULSION ENERGY  198.77359127


 Eigenvalues of metric

         1 0.179E-02 0.600E-02 0.603E-02 0.144E-01 0.286E-01 0.297E-01 0.300E-01 0.361E-01


 Contracted 2-electron integrals neglected if value below      1.0D-11
 AO integral compression algorithm  1   Integral accuracy      1.0D-11

     37.487 MB (compressed) written to integral file ( 49.6%)


 NUMBER OF SORTED TWO-ELECTRON INTEGRALS:    8386560.     BUFFER LENGTH:  32768
 NUMBER OF SEGMENTS:   1  SEGMENT LENGTH:    8386560      RECORD LENGTH: 524288

 Memory used in sort:       8.94 MW

 SORT1 READ     9478508. AND WROTE     7931434. INTEGRALS IN     23 RECORDS. CPU TIME:     0.11 SEC, REAL TIME:     0.21 SEC
 SORT2 READ     7931434. AND WROTE     8386560. INTEGRALS IN    143 RECORDS. CPU TIME:     0.24 SEC, REAL TIME:     0.30 SEC

 FILE SIZES:   FILE 1:    68.0 MBYTE,  FILE 4:    96.5 MBYTE,   TOTAL:    164.5 MBYTE

 OPERATOR DM      FOR CENTER  0  COORDINATES:    0.000000    0.000000    0.000000


 **********************************************************************************************************************************
 DATASETS  * FILE   NREC   LENGTH (MB)   RECORD NAMES
              1      19       63.39       500      610      700      900      950      970     1000      129      960     1100   
                                          VAR    BASINP    GEOM    SYMINP    ZMAT    AOBASIS   BASIS     P2S    ABASIS      S 
                                         1400     1410     1200     1210     1080     1600     1650     1300     1700   
                                           T        V       H0       H01     AOSYM     SMH    MOLCAS    ERIS     OPER   

 PROGRAMS   *        TOTAL       INT
 CPU TIMES  *         1.83      1.68
 REAL TIME  *         2.78 SEC
 DISK USED  *       165.03 MB      
 **********************************************************************************************************************************

 Density functional group VWN80=VWN5
 Functional: VWN5(Automatically generated (new) VWN5)                          Gradient terms: 0
 Use grid at  1800.2

 Functional: VWN5                      Factor:  1.0000

 Generated new metagrid on record  1800.2 with target accuracy 1.0D-06 and 53396 points in CPU time    1.6
 Computed new grid on record 1800.1 in CPU time    1.8
   41619 words reserved for DFT integration

 PROGRAM * RKS-SCF (Restricted closed shell Kohn-Sham)     Authors: W. Meyer, H.-J. Werner, P.J. Knowles, 1993

 NUMBER OF ELECTRONS:      21+   21-    SPACE SYMMETRY=1    SPIN SYMMETRY: Singlet 
 CONVERGENCE THRESHOLDS:    1.00E-05 (Density)    1.00E-06 (Energy)
 MAX. NUMBER OF ITERATIONS:       60
 INTERPOLATION TYPE:            DIIS
 INTERPOLATION STEPS:              2 (START)      1 (STEP)
 LEVEL SHIFTS:                  0.00 (CLOSED)  0.00 (OPEN) 



 Use fine grid record 1800.2 for energy threshold  1.0D-06
 Orbital guess generated from atomic densities. Full valence occupancy:   21

 Molecular orbital dump at record        2100.2

 Initial occupancy:  21

 ITERATION    DDIFF          GRAD             ENERGY        2-EL.EN.            DIPOLE MOMENTS         DIIS   ORB.
    1      0.000D+00      0.000D+00      -200.78122671    559.263347    2.21812    8.02179   -0.00000    0    start
    2      0.000D+00      0.333D-01      -191.47916668    676.851010   -7.01461  -17.88711    0.00000    1    diag
    3      0.351D+00      0.863D-01      -201.62212282    626.986690    0.75750   -2.85581    0.00000    2    diag
    4      0.895D-01      0.336D-01      -202.49516070    603.413025   -0.76553   -3.20539    0.00000    3    diag
    5      0.289D-01      0.173D-01      -202.74147990    608.109217    0.19620   -1.22548    0.00000    4    diag
    6      0.198D-01      0.114D-01      -202.87293518    594.645932    0.63198   -0.16597    0.00000    5    diag
    7      0.261D-01      0.568D-02      -202.90418730    596.991141    0.47646    0.21319    0.00000    6    diag
    8      0.101D-01      0.176D-02      -202.90811510    595.319683    0.26444    0.07053    0.00000    7    diag
    9      0.382D-02      0.508D-03      -202.90850707    595.543425    0.41166    0.17079    0.00000    8    diag
   10      0.150D-02      0.110D-03      -202.90852825    595.578253    0.38760    0.14248   -0.00000    9    orth
   11      0.332D-03      0.198D-04      -202.90852870    595.581161    0.38532    0.14332    0.00000    9    diag
   12      0.610D-04      0.103D-04      -202.90852883    595.579362    0.38625    0.14342   -0.00000    9    diag
   13      0.181D-04      0.280D-05      -202.90852885    595.578658    0.38613    0.14334    0.00000    9    diag
   14      0.510D-05      0.323D-06      -202.90852884    595.578319    0.38612    0.14355    0.00000    0    orth

 Final occupancy:  21

 !RKS STATE 1.1 Energy               -202.908528844988
 Nuclear energy                       198.77359127
 One-electron energy                 -696.89097643
 Two-electron energy                  297.78915959
 Density functional                    -2.58030327     VWN5=-2.58030327
 Virial quotient                       -0.92869038
 !RKS STATE 1.1 Dipole moment           0.38612261     0.14354542     0.00000000
 Dipole moment /Debye                   0.98136150     0.36483217     0.00000000

 Orbital energies:

         1.1          2.1          3.1          4.1          5.1          6.1          7.1          8.1          9.1         10.1
    -16.623284    -8.268521    -8.222377    -8.221947    -8.219696    -0.580642    -0.402405    -0.320437    -0.317561    -0.216248

        11.1         12.1         13.1         14.1         15.1         16.1         17.1         18.1         19.1         20.1
     -0.165750    -0.140457    -0.138659    -0.094504    -0.085007    -0.063272    -0.043389    -0.036435    -0.033317     0.014858

        21.1         22.1         23.1
      0.071306     0.161624     0.217142

 HOMO     21.1     0.071306 =       1.9403eV
 LUMO     22.1     0.161624 =       4.3980eV
 LUMO-HOMO         0.090318 =       2.4577eV


 **********************************************************************************************************************************
 DATASETS  * FILE   NREC   LENGTH (MB)   RECORD NAMES
              1      20       65.10       500      610      700      900      950      970     1000      129      960     1100   
                                          VAR    BASINP    GEOM    SYMINP    ZMAT    AOBASIS   BASIS     P2S    ABASIS      S 
                                         1400     1410     1200     1210     1080     1600     1650     1300     1700     1800   
                                           T        V       H0       H01     AOSYM     SMH    MOLCAS    ERIS     OPER     GRID   

              2       5        3.17       700     1000      520     1800     2100   
                                         GEOM     BASIS   MCVARS    GRID      RKS  

 PROGRAMS   *        TOTAL        KS       INT
 CPU TIMES  *        10.38      8.55      1.68
 REAL TIME  *        13.09 SEC
 DISK USED  *       165.03 MB      
 **********************************************************************************************************************************


 PROGRAM * Intrinsic Basis Bonding Analysis (IBBA)          Author: G. Knizia

 Molecular orbitals read from record     2100.2  Type=RKS/CANONICAL (state 1.1)
 Fock matrix read from record            2100.2  Type=RKS/TOTAL (state 1.1)
 Orbital energies read from record       2100.2  Type=RKS/CANONICAL (state 1.1)
 Density matrix read from record         2100.2  Type=RKS/CHARGE (state 1.1)

 Number of core orbitals:           5 (   5 )
 Number of closed-shell orbitals:  16 (  16 )

 Basis set MINAO-AUTO-PP generated.      Number of basis functions:   35 

 Polarized AO type:                A = (O Ot + (1-O)(1-Ot)) P12
 Orthogonalization method:         Symmetric (Loewdin)
 Localization functional:          L = sum[A,i] <i|n_A|i>^4 -> max

 Localization group 1:  21 orbitals, occupancy  2.000
 Iterative localization: IB/PM,    8 iter; Final gradient 0.28E-09

 Bond order analysis:       [THRPRINT= 0.020]

   CEN ATOM   CEN ATOM     WIBERG.BO      RENORM.BO
     1   C  -   2   C       0.975734       0.993521
     1   C  -   5   H       0.957246       0.968311
     1   C  -   6   H       0.949764       0.952286
     1   C  -   7   H       0.949764       0.952286
     1   C  -   3   O       0.036611       0.020921
     1   C  -   4   H       0.023798       0.028046
     1   C  -  15   H       0.020328       0.020915
     1   C  -  14   H       0.020328       0.020915

     2   C  -   3   O       0.987595       0.956045
     2   C  -   9   C       0.980657       0.969779
     2   C  -   8   C       0.980657       0.969779
     2   C  -   1   C       0.975734       0.993521

     3   O  -   2   C       0.987595       0.956045
     3   O  -   4   H       0.929803       0.937821
     3   O  -   8   C       0.055715       0.030948
     3   O  -   9   C       0.055715       0.030948
     3   O  -   1   C       0.036611       0.020921
     3   O  -  12   H       0.035023       0.024521
     3   O  -  13   H       0.035023       0.024521
     3   O  -   5   H       0.021426       0.016256

     4   H  -   3   O       0.929803       0.937821
     4   H  -   1   C       0.023798       0.028046

     5   H  -   1   C       0.957246       0.968311
     5   H  -   3   O       0.021426       0.016256

     6   H  -   1   C       0.949764       0.952286
     6   H  -   9   C       0.023497       0.023762

     7   H  -   1   C       0.949764       0.952286
     7   H  -   8   C       0.023497       0.023762

     8   C  -   2   C       0.980657       0.969779
     8   C  -  10   H       0.950990       0.951808
     8   C  -  14   H       0.950788       0.959492
     8   C  -  12   H       0.948196       0.949720
     8   C  -   3   O       0.055715       0.030948
     8   C  -   7   H       0.023497       0.023762
     8   C  -  11   H       0.023017       0.023245

     9   C  -   2   C       0.980657       0.969779
     9   C  -  11   H       0.950990       0.951808
     9   C  -  15   H       0.950788       0.959492
     9   C  -  13   H       0.948196       0.949720
     9   C  -   3   O       0.055715       0.030948
     9   C  -   6   H       0.023497       0.023762
     9   C  -  10   H       0.023017       0.023245

    10   H  -   8   C       0.950990       0.951808
    10   H  -   9   C       0.023017       0.023245

    11   H  -   9   C       0.950990       0.951808
    11   H  -   8   C       0.023017       0.023245

    12   H  -   8   C       0.948196       0.949720
    12   H  -   3   O       0.035023       0.024521

    13   H  -   9   C       0.948196       0.949720
    13   H  -   3   O       0.035023       0.024521

    14   H  -   8   C       0.950788       0.959492
    14   H  -   1   C       0.020328       0.020915

    15   H  -   9   C       0.950788       0.959492
    15   H  -   1   C       0.020328       0.020915


 Valency analysis:

   CEN ATOM   TOT.VALENCE
     1   C       3.965370
     2   C       3.948790
     3   O       2.187141
     4   H       0.975520
     5   H       0.998471
     6   H       0.998528
     7   H       0.998528
     8   C       3.966633
     9   C       3.966633
    10   H       0.998527
    11   H       0.998527
    12   H       0.998585
    13   H       0.998585
    14   H       0.999208
    15   H       0.999208

 Total charge composition:

   CEN ATOM         s          p       ELECTRONS ->P.CHARGE
     1   C       2.89866    3.24899      6.14764   -0.14764
     2   C       2.83660    2.91047      5.74708    0.25292
     3   O       3.53980    4.70780      8.24760   -0.24760
     4   H       0.84354                 0.84354    0.15646
     5   H       0.96089                 0.96089    0.03911
     6   H       0.96163                 0.96163    0.03837
     7   H       0.96163                 0.96163    0.03837
     8   C       2.91565    3.25348      6.16913   -0.16913
     9   C       2.91565    3.25348      6.16913   -0.16913
    10   H       0.96162                 0.96162    0.03838
    11   H       0.96162                 0.96162    0.03838
    12   H       0.96238                 0.96238    0.03762
    13   H       0.96238                 0.96238    0.03762
    14   H       0.97186                 0.97186    0.02814
    15   H       0.97186                 0.97186    0.02814

 Total charge composition, AO contributions:

   CEN ATOM SHL      SPHERICAL COMPONENTS
     1   C  1s       1.99782
     1   C  2s       0.90083
     1   C  2p       1.03879    1.10027    1.10993

     2   C  1s       1.99833
     2   C  2s       0.83827
     2   C  2p       1.02122    0.86801    1.02124

     3   O  1s       1.99894
     3   O  2s       1.54086
     3   O  2p       1.34739    1.45710    1.90330

     4   H  1s       0.84354

     5   H  1s       0.96089

     6   H  1s       0.96163

     7   H  1s       0.96163

     8   C  1s       1.99786
     8   C  2s       0.91779
     8   C  2p       1.08553    1.09648    1.07147

     9   C  1s       1.99786
     9   C  2s       0.91779
     9   C  2p       1.08553    1.09648    1.07147

    10   H  1s       0.96162

    11   H  1s       0.96162

    12   H  1s       0.96238

    13   H  1s       0.96238

    14   H  1s       0.97186

    15   H  1s       0.97186

 Summary of localized orbital composition:   [THRPRINT= 0.020]

   ORB  GRP  ORB.ENERGY      CENTERS/CHARGES
     1   1   -16.535331      O  3   2.000
     2   1    -8.200398      C  2   2.000
     3   1    -8.142701      C  9   2.000
     4   1    -8.142701      C  8   2.000
     5   1    -8.140021      C  1   2.000
     6   1    -0.374594      O  3   1.201   C  2   0.773   (other: 0.026)
     7   1    -0.355876      O  3   1.169   H  4   0.817
     8   1    -0.235015      C  1   0.999   C  2   0.952   (other: 0.048)
     9   1    -0.232426      C  9   1.024   C  2   0.944   (other: 0.032)
    10   1    -0.232426      C  8   1.024   C  2   0.944   (other: 0.032)
    11   1    -0.165958      C  8   1.018   H 14   0.958   (other: 0.023)
    12   1    -0.165958      C  9   1.018   H 15   0.958   (other: 0.023)
    13   1    -0.161993      C  9   1.037   H 13   0.942   (other: 0.020)
    14   1    -0.161993      C  8   1.037   H 12   0.942   (other: 0.020)
    15   1    -0.160286      C  1   1.032   H  5   0.947   (other: 0.020)
    16   1    -0.159263      C  9   1.038   H 11   0.945
    17   1    -0.159263      C  8   1.038   H 10   0.945
    18   1    -0.157035      C  1   1.037   H  6   0.944
    19   1    -0.157035      C  1   1.037   H  7   0.944
    20   1    -0.110725      O  3   1.960   (other: 0.040)
    21   1     0.043253      O  3   1.903   C  2   0.029   C  8   0.021   C  9   0.021   (other: 0.026)

 Localized orbitals saved to record      2100.2  (orbital set 2)


 **********************************************************************************************************************************
 DATASETS  * FILE   NREC   LENGTH (MB)   RECORD NAMES
              1      20       65.10       500      610      700      900      950      970     1000      129      960     1100   
                                          VAR    BASINP    GEOM    SYMINP    ZMAT    AOBASIS   BASIS     P2S    ABASIS      S 
                                         1400     1410     1200     1210     1080     1600     1650     1300     1700     1800   
                                           T        V       H0       H01     AOSYM     SMH    MOLCAS    ERIS     OPER     GRID   

              2       5        3.24       700     1000      520     1800     2100   
                                         GEOM     BASIS   MCVARS    GRID      RKS  

 PROGRAMS   *        TOTAL      IBBA        KS       INT
 CPU TIMES  *        10.41      0.03      8.55      1.68
 REAL TIME  *        13.22 SEC
 DISK USED  *       165.03 MB      
 **********************************************************************************************************************************
 Molecular orbitals read from record     2100.2  Type=RKS/LOCAL(IBO)  
 Occupation numbers read from record     2100.2  Type=RKS/LOCAL(IBO)  
 Orbital energies read from record       2100.2  Type=RKS/LOCAL(IBO)  
 Redundancy group numbers read from rec  2100.2  Type=RKS/LOCAL(IBO)  

 IBBA/SV(P) energy=      0.000000000000

        KS-SCF  
   -202.90852884
 **********************************************************************************************************************************
 Molpro calculation terminated
