
 Primary working directories    : /tmp/sb13343
 Secondary working directories  : /tmp/sb13343
 Wavefunction directory         : /panfs/panasas01/chem/sb13343/wfu/
 Main file repository           : /tmp/sb13343/

 SHA1      : b4a5b34a9e711420743f49e6833241d17c61fb3c
 NAME      : 2099.9.b4a5b34
 ARCHNAME  : linux/x86_64_openmp
 FC        : /cm/shared/languages/GCC-6.1/bin/gfortran
 BLASLIB   : -lblas
 id        : simonbennie

 Nodes     nprocs
 node32-002    1

 Using customized tuning parameters: mindgm=1; mindgv=20; mindgc=4; mindgr=1; noblas=0; minvec=7
 default implementation of scratch files=df  

 memory,500,m
 geomtyp=xyz
 nosym
 noorient
 geometry={
 C          0.00000        0.00000        0.00000
 H          0.00000        0.00000        1.10056
 C          1.46209        0.00000       -0.46855
 C         -0.73105       -1.26621       -0.46855
 C         -0.73105        1.26621       -0.46855
 H          1.52118        0.00000       -1.56505
 H         -0.76059       -1.31738       -1.56505
 H         -0.76059        1.31738       -1.56505
 H          1.99755        0.88622       -0.10723
 H          1.99755       -0.88622       -0.10723
 H         -0.23129       -2.17304       -0.10723
 H         -1.76626       -1.28682       -0.10723
 H         -1.76626        1.28682       -0.10723
 H         -0.23129        2.17304       -0.10723
 }
 basis={ default,svp }
 {uks,M06-HF,direct;wf,34,1,0}
 {ibba,bonds=1}

 Variables initialized (895), CPU time= 0.01 sec
 Commands  initialized (725), CPU time= 0.01 sec, 591 directives.
 Default parameters read. Elapsed time= 0.13 sec

 Checking input...
 Passed
1


                                         ***  PROGRAM SYSTEM MOLPRO  ***
                                       Copyright, TTI GmbH Stuttgart, 2015
                                    Version 2099.9 linked May 26 2017 16:03:21


 **********************************************************************************************************************************
 LABEL *                                                                                 
  64 bit serial version                                                                  DATE: 09-Jun-17          TIME: 00:18:05  
 **********************************************************************************************************************************

 SHA1:             b4a5b34a9e711420743f49e6833241d17c61fb3c
 **********************************************************************************************************************************
 SETTING GEOMTYP        =    XYZ

 Variable memory set to  500000000 words,  buffer space 

 ZSYMEL=NOSYM

 SETTING BASIS          =    SVP


 Recomputing integrals since basis changed


 Using spherical harmonics

 Library entry C      S def2-SVP             selected for orbital group  1
 Library entry C      P def2-SVP             selected for orbital group  1
 Library entry C      D def2-SVP             selected for orbital group  1
 Library entry H      S def2-SVP             selected for orbital group  2
 Library entry H      P def2-SVP             selected for orbital group  2


 PROGRAM * SEWARD (Integral evaluation for generally contracted gaussian basis sets)     Author: Roland Lindh, 1990

 Geometry written to block  1 of record 700


 Point group  C1  



 ATOMIC COORDINATES

 NR  ATOM    CHARGE       X              Y              Z

   1  C       6.00    0.000000000    0.000000000    0.000000000
   2  H       1.00    0.000000000    0.000000000    2.079756984
   3  C       6.00    2.762949669    0.000000000   -0.885431176
   4  C       6.00   -1.381484283   -2.392790116   -0.885431176
   5  C       6.00   -1.381484283    2.392790116   -0.885431176
   6  H       1.00    2.874613586    0.000000000   -2.957515871
   7  H       1.00   -1.437306793   -2.489487402   -2.957515871
   8  H       1.00   -1.437306793    2.489487402   -2.957515871
   9  H       1.00    3.774822420    1.674713086   -0.202635332
  10  H       1.00    3.774822420   -1.674713086   -0.202635332
  11  H       1.00   -0.437074755   -4.106450458   -0.202635332
  12  H       1.00   -3.337747665   -2.431737372   -0.202635332
  13  H       1.00   -3.337747665    2.431737372   -0.202635332
  14  H       1.00   -0.437074755    4.106450458   -0.202635332

 Bond lengths in Bohr (Angstrom)

 1-2  2.079756984  1-3  2.901358172  1-4  2.901367218  1-5  2.901367218  3-6  2.075091279
     ( 1.100560000)     ( 1.535332625)     ( 1.535337412)     ( 1.535337412)     ( 1.098091015)

  3- 9  2.072380406   3-10  2.072380406   4- 7  2.075090722   4-11  2.072378172   4-12  2.072364222
       ( 1.096656483)       ( 1.096656483)       ( 1.098090721)       ( 1.096655301)       ( 1.096647919)

  5- 8  2.075090722   5-13  2.072364222   5-14  2.072378172
       ( 1.098090721)       ( 1.096647919)       ( 1.096655301)

 Bond angles

  1- 3- 6  110.85354902   1- 3- 9  111.37220114   1- 3-10  111.37220114   1- 4- 7  110.85320625

  1- 4-11  111.37204414   1- 4-12  111.37216555   1- 5- 8  110.85320625   1- 5-13  111.37216555

  1- 5-14  111.37204414   2- 1- 3  107.76888332   2- 1- 4  107.76882608   2- 1- 5  107.76882608

  3-1-4  111.11870751   3-1-5  111.11870751   4-1-5  111.11845005   6-3-9  107.62119374

  6- 3-10  107.62119374   7- 4-11  107.62125572   7- 4-12  107.62162102   8- 5-13  107.62162102

  8- 5-14  107.62125572   9- 3-10  107.82352924  11- 4-12  107.82360822  13- 5-14  107.82360822

 NUCLEAR CHARGE:                   34
 NUMBER OF PRIMITIVE AOS:         170
 NUMBER OF SYMMETRY AOS:          166
 NUMBER OF CONTRACTIONS:          106   ( 106A   )
 NUMBER OF CORE ORBITALS:           4   (   4A   )
 NUMBER OF VALENCE ORBITALS:       26   (  26A   )


 NUCLEAR REPULSION ENERGY  134.07051350


 Eigenvalues of metric

         1 0.225E-02 0.614E-02 0.614E-02 0.233E-01 0.256E-01 0.268E-01 0.268E-01 0.277E-01


 Contracted 2-electron integrals neglected if value below      1.0D-11
 AO integral compression algorithm  1   Integral accuracy      1.0D-11

     64.750 MB (compressed) written to integral file ( 46.7%)


 NUMBER OF SORTED TWO-ELECTRON INTEGRALS:   16082956.     BUFFER LENGTH:  32768
 NUMBER OF SEGMENTS:   2  SEGMENT LENGTH:   15997996      RECORD LENGTH: 524288

 Memory used in sort:      16.56 MW

 SORT1 READ    17384690. AND WROTE    14795173. INTEGRALS IN     44 RECORDS. CPU TIME:     0.24 SEC, REAL TIME:     0.80 SEC
 SORT2 READ    14795173. AND WROTE    16082956. INTEGRALS IN    247 RECORDS. CPU TIME:     0.41 SEC, REAL TIME:     0.85 SEC

 FILE SIZES:   FILE 1:    95.4 MBYTE,  FILE 4:   184.6 MBYTE,   TOTAL:    279.9 MBYTE

 OPERATOR DM      FOR CENTER  0  COORDINATES:    0.000000    0.000000    0.000000


 **********************************************************************************************************************************
 DATASETS  * FILE   NREC   LENGTH (MB)   RECORD NAMES
              1      19       87.57       500      610      700      900      950      970     1000      129      960     1100   
                                          VAR    BASINP    GEOM    SYMINP    ZMAT    AOBASIS   BASIS     P2S    ABASIS      S 
                                         1400     1410     1200     1210     1080     1600     1650     1300     1700   
                                           T        V       H0       H01     AOSYM     SMH    MOLCAS    ERIS     OPER   

 PROGRAMS   *        TOTAL       INT
 CPU TIMES  *         2.87      2.71
 REAL TIME  *         7.30 SEC
 DISK USED  *       280.45 MB      
 **********************************************************************************************************************************

 Density functional group M06-HF=XC-M06-HF
 Functional: XC-M06-HF(via MFM 1.6)                                            Gradient terms: 1
 Use grid at  1800.2


 Exact exchange will be calculated, factor:  1.0000

 Functional: XC-M06-HF                 Factor:  1.0000

 Generated new metagrid on record  1800.2 with target accuracy 1.0D-06 and 45620 points in CPU time    1.1
 Computed new grid on record 1800.1 in CPU time    1.3
   88342 words reserved for DFT integration

 PROGRAM * UKS-SCF (Unrestricted Kohn-Sham)     Authors: W. Meyer, H.-J. Werner, P.J. Knowles, 1993

 NUMBER OF ELECTRONS:      17+   17-    SPACE SYMMETRY=1    SPIN SYMMETRY: Singlet 
 CONVERGENCE THRESHOLDS:    1.00E-05 (Density)    1.00E-06 (Energy)
 MAX. NUMBER OF ITERATIONS:       60
 INTERPOLATION TYPE:            DIIS
 INTERPOLATION STEPS:              2 (START)      1 (STEP)
 LEVEL SHIFTS:                 -0.20 (ALPHA)  -0.20 (BETA) 



 Use fine grid record 1800.2 for energy threshold  1.0D-06
 Orbital guess generated from atomic densities. Full valence occupancy:   17

 Molecular orbital dump at record        2200.2

 Initial alpha occupation  17
 Initial beta  occupation  17

 ITERATION    DDIFF          GRAD             ENERGY        2-EL.EN.            DIPOLE MOMENTS         DIIS
    1      0.000D+00      0.000D+00      -158.19817103    374.235126   -0.00023    0.00000   -0.00447    0
    2      0.487D-02      0.276D-02      -158.25130872    369.754657    0.00593    0.00000    0.02278    1
    3      0.138D-02      0.886D-03      -158.25805686    370.250321    0.00901    0.00000    0.04676    2
    4      0.149D-02      0.406D-03      -158.26024955    370.144772    0.01294    0.00000    0.05695    3
    5      0.379D-03      0.636D-04      -158.26030645    370.135354    0.01396    0.00000    0.05655    4
    6      0.162D-03      0.205D-04      -158.26031319    370.122283    0.01450    0.00000    0.05641    5
    7      0.286D-04      0.490D-05      -158.26031357    370.124025    0.01465    0.00000    0.05596    6
    8      0.123D-04      0.172D-05      -158.26031362    370.123396    0.01471    0.00000    0.05590    6
    9      0.316D-05      0.456D-06      -158.26031363    370.123339    0.01473    0.00000    0.05582    6
   10      0.510D-06      0.962D-07      -158.26031363    370.123425    0.01473    0.00000    0.05582    6

 Final alpha occupancy:  17
 Final beta  occupancy:  17

 !UKS STATE 1.1 Energy               -158.260313628604
 Nuclear energy                       134.07051350
 One-electron energy                 -476.30632353
 Two-electron energy                  185.06171269
 Density functional                    -1.08621628     XC-M06-HF=-1.08621628
 Virial quotient                       -1.01405334
 !UKS STATE 1.1 Dipole moment           0.01472867     0.00000000     0.05581975
 Dipole moment /Debye                   0.03743410     0.00000000     0.14187035

 Orbital energies for positive spin:

         1.1          2.1          3.1          4.1          5.1          6.1          7.1          8.1          9.1         10.1
    -10.974869   -10.965975   -10.965946   -10.965803    -1.000683    -0.868268    -0.868162    -0.728616    -0.622171    -0.584950

        11.1         12.1         13.1         14.1         15.1         16.1         17.1         18.1         19.1
     -0.584621    -0.530384    -0.529651    -0.509108    -0.457010    -0.456647    -0.455503     0.114622     0.168201

 Orbital energies for negative spin:

         1.1          2.1          3.1          4.1          5.1          6.1          7.1          8.1          9.1         10.1
    -10.974869   -10.965975   -10.965946   -10.965803    -1.000683    -0.868268    -0.868162    -0.728616    -0.622171    -0.584950

        11.1         12.1         13.1         14.1         15.1         16.1         17.1         18.1         19.1
     -0.584621    -0.530384    -0.529651    -0.509108    -0.457010    -0.456647    -0.455503     0.114622     0.168201

 HOMO     17.1    -0.455503 =     -12.3949eV
 LUMO     18.1     0.114622 =       3.1190eV
 LUMO-HOMO         0.570125 =      15.5139eV

 EXPECTATION VALUE OF S**2:            -0.00000000

 Natural orbitals saved to record    2200.2 (Orbital set 3)

 Orbital spaces for UNO-CAS (Min. occupation: 0.020  Max. occupation: 1.980):

 Closed:       17
 Active:        0


 **********************************************************************************************************************************
 DATASETS  * FILE   NREC   LENGTH (MB)   RECORD NAMES
              1      20       89.03       500      610      700      900      950      970     1000      129      960     1100   
                                          VAR    BASINP    GEOM    SYMINP    ZMAT    AOBASIS   BASIS     P2S    ABASIS      S 
                                         1400     1410     1200     1210     1080     1600     1650     1300     1700     1800   
                                           T        V       H0       H01     AOSYM     SMH    MOLCAS    ERIS     OPER     GRID   

              2       5        3.45       700     1000      520     1800     2200   
                                         GEOM     BASIS   MCVARS    GRID      UKS  

 PROGRAMS   *        TOTAL       UKS       INT
 CPU TIMES  *        49.78     46.91      2.71
 REAL TIME  *        76.38 SEC
 DISK USED  *       280.45 MB      
 **********************************************************************************************************************************


 PROGRAM * Intrinsic Basis Bonding Analysis (IBBA)          Author: G. Knizia

 Molecular orbitals read from record     2200.2  Type=UKS/ALPHA (state 1.1)
 Fock matrix read from record            2200.2  Type=UKS/TOTAL (state 1.1)
 Orbital energies read from record       2200.2  Type=UKS/ALPHA (state 1.1)
 Density matrix read from record         2200.2  Type=UKS/CHARGE (state 1.1)

 Number of core orbitals:           4 (   4 )
 Number of closed-shell orbitals:  13 (  13 )

 Basis set MINAO-AUTO-PP generated.      Number of basis functions:   30 

 Polarized AO type:                A = (O Ot + (1-O)(1-Ot)) P12
 Orthogonalization method:         Symmetric (Loewdin)
 Localization functional:          L = sum[A,i] <i|n_A|i>^4 -> max

 Localization group 1:  17 orbitals, occupancy  2.000
 Iterative localization: IB/PM,    7 iter; Final gradient 0.91E-09

 Bond order analysis:       [THRPRINT= 0.020]

   CEN ATOM   CEN ATOM     WIBERG.BO      RENORM.BO
     1   C  -   5   C       1.008391       1.007304
     1   C  -   4   C       1.008391       1.007304
     1   C  -   3   C       1.008251       1.007245
     1   C  -   2   H       0.940683       0.964838

     2   H  -   1   C       0.940683       0.964838

     3   C  -   1   C       1.008251       1.007245
     3   C  -   6   H       0.966909       0.982569
     3   C  -   9   H       0.966854       0.986133
     3   C  -  10   H       0.966854       0.986133

     4   C  -   1   C       1.008391       1.007304
     4   C  -  12   H       0.967200       0.985968
     4   C  -   7   H       0.966970       0.982576
     4   C  -  11   H       0.966629       0.986232

     5   C  -   1   C       1.008391       1.007304
     5   C  -  13   H       0.967200       0.985968
     5   C  -   8   H       0.966970       0.982576
     5   C  -  14   H       0.966629       0.986232

     6   H  -   3   C       0.966909       0.982569

     7   H  -   4   C       0.966970       0.982576

     8   H  -   5   C       0.966970       0.982576

     9   H  -   3   C       0.966854       0.986133

    10   H  -   3   C       0.966854       0.986133

    11   H  -   4   C       0.966629       0.986232

    12   H  -   4   C       0.967200       0.985968

    13   H  -   5   C       0.967200       0.985968

    14   H  -   5   C       0.966629       0.986232


 Valency analysis:

   CEN ATOM   TOT.VALENCE
     1   C       3.974811
     2   H       0.985172
     3   C       3.940972
     4   C       3.941050
     5   C       3.941050
     6   H       0.986173
     7   H       0.986277
     8   H       0.986277
     9   H       0.984579
    10   H       0.984579
    11   H       0.984255
    12   H       0.984956
    13   H       0.984956
    14   H       0.984255

 Total charge composition:

   CEN ATOM         s          p       ELECTRONS ->P.CHARGE
     1   C       2.93103    3.17264      6.10367   -0.10367
     2   H       0.87823                 0.87823    0.12177
     3   C       2.99198    3.37929      6.37127   -0.37127
     4   C       2.99170    3.37997      6.37167   -0.37167
     5   C       2.99170    3.37997      6.37167   -0.37167
     6   H       0.88241                 0.88241    0.11759
     7   H       0.88285                 0.88285    0.11715
     8   H       0.88285                 0.88285    0.11715
     9   H       0.87582                 0.87582    0.12418
    10   H       0.87582                 0.87582    0.12418
    11   H       0.87452                 0.87452    0.12548
    12   H       0.87735                 0.87735    0.12265
    13   H       0.87735                 0.87735    0.12265
    14   H       0.87452                 0.87452    0.12548

 Total charge composition, AO contributions:

   CEN ATOM SHL      SPHERICAL COMPONENTS
     1   C  1s       1.99108
     1   C  2s       0.93995
     1   C  2p       1.02275    1.02267    1.12722

     2   H  1s       0.87823

     3   C  1s       1.99047
     3   C  2s       1.00151
     3   C  2p       1.06440    1.16510    1.14978

     4   C  1s       1.99047
     4   C  2s       1.00123
     4   C  2p       1.13869    1.09165    1.14964

     5   C  1s       1.99047
     5   C  2s       1.00123
     5   C  2p       1.13869    1.09165    1.14964

     6   H  1s       0.88241

     7   H  1s       0.88285

     8   H  1s       0.88285

     9   H  1s       0.87582

    10   H  1s       0.87582

    11   H  1s       0.87452

    12   H  1s       0.87735

    13   H  1s       0.87735

    14   H  1s       0.87452

 Summary of localized orbital composition:   [THRPRINT= 0.020]

   ORB  GRP  ORB.ENERGY      CENTERS/CHARGES
     1   1   -10.866214      C  1   2.000
     2   1   -10.847098      C  4   2.000
     3   1   -10.847098      C  5   2.000
     4   1   -10.846904      C  3   2.000
     5   1    -0.706446      C  4   0.998   C  1   0.987
     6   1    -0.706446      C  5   0.998   C  1   0.987
     7   1    -0.705902      C  3   0.997   C  1   0.987
     8   1    -0.656901      C  5   1.125   H 14   0.868
     9   1    -0.656901      C  4   1.125   H 11   0.868
    10   1    -0.656151      C  3   1.123   H  9   0.869
    11   1    -0.656151      C  3   1.123   H 10   0.869
    12   1    -0.654798      C  4   1.121   H 12   0.871
    13   1    -0.654798      C  5   1.121   H 13   0.871
    14   1    -0.653329      C  3   1.117   H  6   0.876
    15   1    -0.652287      C  4   1.116   H  7   0.876
    16   1    -0.652287      C  5   1.116   H  8   0.876
    17   1    -0.648628      C  1   1.110   H  2   0.865   (other: 0.024)

 Localized orbitals saved to record      2200.2  (orbital set 4)


 **********************************************************************************************************************************
 DATASETS  * FILE   NREC   LENGTH (MB)   RECORD NAMES
              1      20       89.03       500      610      700      900      950      970     1000      129      960     1100   
                                          VAR    BASINP    GEOM    SYMINP    ZMAT    AOBASIS   BASIS     P2S    ABASIS      S 
                                         1400     1410     1200     1210     1080     1600     1650     1300     1700     1800   
                                           T        V       H0       H01     AOSYM     SMH    MOLCAS    ERIS     OPER     GRID   

              2       5        3.54       700     1000      520     1800     2200   
                                         GEOM     BASIS   MCVARS    GRID      UKS  

 PROGRAMS   *        TOTAL      IBBA       UKS       INT
 CPU TIMES  *        49.82      0.04     46.91      2.71
 REAL TIME  *        76.56 SEC
 DISK USED  *       280.45 MB      
 **********************************************************************************************************************************
 Molecular orbitals read from record     2200.2  Type=UKS/LOCAL(IBO)  
 Occupation numbers read from record     2200.2  Type=UKS/LOCAL(IBO)  
 Orbital energies read from record       2200.2  Type=UKS/LOCAL(IBO)  
 Redundancy group numbers read from rec  2200.2  Type=UKS/BETA (state 1.1)

 IBBA/SVP energy=      0.000000000000

        UKS-SCF 
   -158.26031363
 **********************************************************************************************************************************
 Molpro calculation terminated
