
 Primary working directories    : /local
 Secondary working directories  : /local
 Wavefunction directory         : /local/
 Main file repository           : /local/

 SHA1      : b4a5b34a9e711420743f49e6833241d17c61fb3c
 NAME      : 2099.9.b4a5b34
 ARCHNAME  : linux/x86_64_openmp
 FC        : /cm/shared/languages/GCC-6.1/bin/gfortran
 BLASLIB   : -lblas
 id        : simonbennie

 Nodes     nprocs
 node45-018    1

 Using customized tuning parameters: mindgm=1; mindgv=20; mindgc=4; mindgr=1; noblas=0; minvec=7
 default implementation of scratch files=df  

 memory,500,m
 geomtyp=xyz
 nosym
 noorient
 geometry={
 C         -1.53233        0.02247        0.00000
 C         -0.00192        0.01421        0.00000
 O          0.37239        1.40356        0.00000
 H          1.34248        1.44036        0.00000
 H         -1.92991       -0.99819        0.00000
 H         -1.90797        0.54382       -0.88653
 H         -1.90797        0.54382        0.88653
 C          0.54303       -0.66466       -1.26580
 C          0.54303       -0.66466        1.26580
 H          0.17836       -0.14752       -2.15943
 H          0.17836       -0.14752        2.15943
 H          0.23752       -1.71600       -1.32280
 H          0.23752       -1.71600        1.32280
 H          1.64084       -0.63767       -1.28032
 H          1.64084       -0.63767        1.28032
 }
 basis={ default,avdz }
 {uks,LDA,direct;wf,42,1,0}
 {ibba,bonds=1}

 Variables initialized (895), CPU time= 0.00 sec
 Commands  initialized (725), CPU time= 0.02 sec, 591 directives.
 Default parameters read. Elapsed time= 0.07 sec

 Checking input...
 Passed
1


                                         ***  PROGRAM SYSTEM MOLPRO  ***
                                       Copyright, TTI GmbH Stuttgart, 2015
                                    Version 2099.9 linked May 26 2017 16:03:21


 **********************************************************************************************************************************
 LABEL *                                                                                 
  64 bit serial version                                                                  DATE: 12-Jun-17          TIME: 16:25:14  
 **********************************************************************************************************************************

 SHA1:             b4a5b34a9e711420743f49e6833241d17c61fb3c
 **********************************************************************************************************************************
 SETTING GEOMTYP        =    XYZ

 Variable memory set to  500000000 words,  buffer space 

 ZSYMEL=NOSYM

 SETTING BASIS          =    AVDZ


 Recomputing integrals since basis changed


 Using spherical harmonics

 Library entry C      S aug-cc-pVDZ          selected for orbital group  1
 Library entry C      P aug-cc-pVDZ          selected for orbital group  1
 Library entry C      D aug-cc-pVDZ          selected for orbital group  1
 Library entry O      S aug-cc-pVDZ          selected for orbital group  2
 Library entry O      P aug-cc-pVDZ          selected for orbital group  2
 Library entry O      D aug-cc-pVDZ          selected for orbital group  2
 Library entry H      S aug-cc-pVDZ          selected for orbital group  3
 Library entry H      P aug-cc-pVDZ          selected for orbital group  3


 PROGRAM * SEWARD (Integral evaluation for generally contracted gaussian basis sets)     Author: Roland Lindh, 1990

 Geometry written to block  1 of record 700


 Point group  C1  



 ATOMIC COORDINATES

 NR  ATOM    CHARGE       X              Y              Z

   1  C       6.00   -2.895684032    0.042462146    0.000000000
   2  C       6.00   -0.003628274    0.026853008    0.000000000
   3  O       8.00    0.703715112    2.652343999    0.000000000
   4  H       1.00    2.536919528    2.721885921    0.000000000
   5  H       1.00   -3.647001345   -1.886305720    0.000000000
   6  H       1.00   -3.605540754    1.027670861   -1.675298901
   7  H       1.00   -3.605540754    1.027670861    1.675298901
   8  C       6.00    1.026177977   -1.256025366   -2.392015328
   9  C       6.00    1.026177977   -1.256025366    2.392015328
  10  H       1.00    0.337051552   -0.278772398   -4.080731285
  11  H       1.00    0.337051552   -0.278772398    4.080731285
  12  H       1.00    0.448847749   -3.242770030   -2.499729718
  13  H       1.00    0.448847749   -3.242770030    2.499729718
  14  H       1.00    3.100738214   -1.205021658   -2.419454152
  15  H       1.00    3.100738214   -1.205021658    2.419454152

 Bond lengths in Bohr (Angstrom)

 1-2  2.892097881  1-5  2.069933136  1-6  2.069096224  1-7  2.069096224  2-3  2.719106031
     ( 1.530432290)     ( 1.095361444)     ( 1.094918569)     ( 1.094918569)     ( 1.438888946)

  2- 8  2.903104402   2- 9  2.903104402   3- 4  1.834522965   8-10  2.069222119   8-12  2.071730422
       ( 1.536256691)       ( 1.536256691)       ( 0.970787746)       ( 1.094985190)       ( 1.096312526)

  8-14  2.075368508   9-11  2.069222119   9-13  2.071730422   9-15  2.075368508
       ( 1.098237719)       ( 1.094985190)       ( 1.096312526)       ( 1.098237719)

 Bond angles

  1-2-3  104.76902697   1-2-8  110.92255387   1-2-9  110.92255387   2-1-5  110.97328220

  2- 1- 6  110.22090701   2- 1- 7  110.22090701   2- 3- 4  107.25071562   2- 8-10  110.21836376

  2- 8-12  111.57747468   2- 8-14  110.77023896   2- 9-11  110.21836376   2- 9-13  111.57747468

  2- 9-15  110.77023896   3- 2- 8  109.53648747   3- 2- 9  109.53648747   5- 1- 6  108.61190457

  5- 1- 7  108.61190457   6- 1- 7  108.12870271   8- 2- 9  110.96453384  10- 8-12  108.52192632

 10- 8-14  108.08997829  11- 9-13  108.52192632  11- 9-15  108.08997829  12- 8-14  107.54424578

 13- 9-15  107.54424578

 NUCLEAR CHARGE:                   42
 NUMBER OF PRIMITIVE AOS:         295
 NUMBER OF SYMMETRY AOS:          285
 NUMBER OF CONTRACTIONS:          205   ( 205A   )
 NUMBER OF CORE ORBITALS:           5   (   5A   )
 NUMBER OF VALENCE ORBITALS:       30   (  30A   )


 NUCLEAR REPULSION ENERGY  198.77359127


 Eigenvalues of metric

         1 0.151E-04 0.552E-04 0.579E-04 0.110E-03 0.111E-03 0.217E-03 0.237E-03 0.259E-03


 Contracted 2-electron integrals neglected if value below      1.0D-12
 AO integral compression algorithm  1   Integral accuracy      1.0D-12

     1203.503 MB (compressed) written to integral file ( 61.3%)


 NUMBER OF SORTED TWO-ELECTRON INTEGRALS:  222932170.     BUFFER LENGTH:  32768
 NUMBER OF SEGMENTS:  14  SEGMENT LENGTH:   15999503      RECORD LENGTH: 524288

 Memory used in sort:      16.56 MW

 SORT1 READ   245224724. AND WROTE   218324786. INTEGRALS IN    630 RECORDS. CPU TIME:     2.88 SEC, REAL TIME:     5.84 SEC
 SORT2 READ   218324786. AND WROTE   222932170. INTEGRALS IN   4591 RECORDS. CPU TIME:     5.33 SEC, REAL TIME:    10.98 SEC

 FILE SIZES:   FILE 1:  1235.3 MBYTE,  FILE 4:  2642.4 MBYTE,   TOTAL:   3877.7 MBYTE

 OPERATOR DM      FOR CENTER  0  COORDINATES:    0.000000    0.000000    0.000000


 **********************************************************************************************************************************
 DATASETS  * FILE   NREC   LENGTH (MB)   RECORD NAMES
              1      19     1149.90       500      610      700      900      950      970     1000      129      960     1100   
                                          VAR    BASINP    GEOM    SYMINP    ZMAT    AOBASIS   BASIS     P2S    ABASIS      S 
                                         1400     1410     1200     1210     1080     1600     1650     1300     1700   
                                           T        V       H0       H01     AOSYM     SMH    MOLCAS    ERIS     OPER   

 PROGRAMS   *        TOTAL       INT
 CPU TIMES  *        20.67     20.53
 REAL TIME  *        52.36 SEC
 DISK USED  *         3.88 GB      
 **********************************************************************************************************************************

 Density functional group LDA=DIRAC+VWN5
 Functional: DIRAC(Automatically generated (new) DIRAC)                        Gradient terms: 0
 Functional: VWN5(Automatically generated (new) VWN5)                          Gradient terms: 0
 Use grid at  1800.2

 Functional: DIRAC                     Factor:  1.0000
 Functional: VWN5                      Factor:  1.0000

 Generated new metagrid on record  1800.2 with target accuracy 1.0D-06 and 53396 points in CPU time    1.7
 Computed new grid on record 1800.1 in CPU time    1.9
   89184 words reserved for DFT integration

 PROGRAM * UKS-SCF (Unrestricted Kohn-Sham)     Authors: W. Meyer, H.-J. Werner, P.J. Knowles, 1993

 NUMBER OF ELECTRONS:      21+   21-    SPACE SYMMETRY=1    SPIN SYMMETRY: Singlet 
 CONVERGENCE THRESHOLDS:    1.00E-05 (Density)    1.00E-06 (Energy)
 MAX. NUMBER OF ITERATIONS:       60
 INTERPOLATION TYPE:            DIIS
 INTERPOLATION STEPS:              2 (START)      1 (STEP)
 LEVEL SHIFTS:                 -0.20 (ALPHA)  -0.20 (BETA) 



 Use fine grid record 1800.2 for energy threshold  1.0D-06
 Orbital guess generated from atomic densities. Full valence occupancy:   35

 Molecular orbital dump at record        2200.2

 Initial alpha occupation  21
 Initial beta  occupation  21

 ITERATION    DDIFF          GRAD             ENERGY        2-EL.EN.            DIPOLE MOMENTS         DIIS
    1      0.000D+00      0.000D+00      -231.33243819    639.787387    0.70780   -0.77618    0.00000    0
    2      0.249D-01      0.377D-02      -231.57437182    613.587799    0.17730   -0.50538    0.00000    1
    3      0.997D-02      0.209D-02      -231.64808553    621.729474    0.35607   -0.59452    0.00000    2
    4      0.176D-02      0.257D-03      -231.64942179    621.284359    0.33419   -0.53252    0.00000    3
    5      0.104D-02      0.131D-03      -231.64991029    621.233343    0.33221   -0.54511    0.00000    4
    6      0.726D-03      0.352D-04      -231.65000707    621.202162    0.33045   -0.53736    0.00000    5
    7      0.211D-03      0.160D-04      -231.65001605    621.158330    0.32813   -0.53757    0.00000    6
    8      0.997D-04      0.778D-05      -231.65001818    621.168198    0.32777   -0.53871    0.00000    7
    9      0.276D-04      0.116D-05      -231.65001830    621.165969    0.32783   -0.53794    0.00000    7
   10      0.880D-05      0.406D-06      -231.65001832    621.167110    0.32767   -0.53823    0.00000    7
   11      0.234D-05      0.167D-06      -231.65001832    621.166313    0.32768   -0.53817    0.00000    7

 Final alpha occupancy:  21
 Final beta  occupancy:  21

 !UKS STATE 1.1 Energy               -231.650018316746
 Nuclear energy                       198.77359127
 One-electron energy                 -709.11378398
 Two-electron energy                  310.58315648
 Density functional                   -31.89298209     DIRAC=-29.24411457 VWN5= -2.64886752
 Virial quotient                       -1.00121634
 !UKS STATE 1.1 Dipole moment           0.32768289    -0.53817267     0.00000000
 Dipole moment /Debye                   0.83283227    -1.36780889     0.00000000

 Orbital energies for positive spin:

         1.1          2.1          3.1          4.1          5.1          6.1          7.1          8.1          9.1         10.1
    -18.613845    -9.840308    -9.771047    -9.771032    -9.765734    -0.931860    -0.715590    -0.624429    -0.623881    -0.517237

        11.1         12.1         13.1         14.1         15.1         16.1         17.1         18.1         19.1         20.1
     -0.444085    -0.409032    -0.406179    -0.368922    -0.355144    -0.338515    -0.322893    -0.315255    -0.307795    -0.283141

        21.1         22.1         23.1
     -0.231467    -0.029746     0.000388

 Orbital energies for negative spin:

         1.1          2.1          3.1          4.1          5.1          6.1          7.1          8.1          9.1         10.1
    -18.613845    -9.840308    -9.771047    -9.771032    -9.765734    -0.931860    -0.715590    -0.624429    -0.623881    -0.517237

        11.1         12.1         13.1         14.1         15.1         16.1         17.1         18.1         19.1         20.1
     -0.444085    -0.409032    -0.406179    -0.368922    -0.355144    -0.338515    -0.322893    -0.315255    -0.307795    -0.283141

        21.1         22.1         23.1
     -0.231467    -0.029746     0.000388

 HOMO     21.1    -0.231467 =      -6.2985eV
 LUMO     22.1    -0.029746 =      -0.8094eV
 LUMO-HOMO         0.201721 =       5.4891eV

 EXPECTATION VALUE OF S**2:             0.00000000

 Natural orbitals saved to record    2200.2 (Orbital set 3)

 Orbital spaces for UNO-CAS (Min. occupation: 0.020  Max. occupation: 1.980):

 Closed:       21
 Active:        0


 **********************************************************************************************************************************
 DATASETS  * FILE   NREC   LENGTH (MB)   RECORD NAMES
              1      20     1151.61       500      610      700      900      950      970     1000      129      960     1100   
                                          VAR    BASINP    GEOM    SYMINP    ZMAT    AOBASIS   BASIS     P2S    ABASIS      S 
                                         1400     1410     1200     1210     1080     1600     1650     1300     1700     1800   
                                           T        V       H0       H01     AOSYM     SMH    MOLCAS    ERIS     OPER     GRID   

              2       5        4.72       700     1000      520     1800     2200   
                                         GEOM     BASIS   MCVARS    GRID      UKS  

 PROGRAMS   *        TOTAL       UKS       INT
 CPU TIMES  *        68.36     47.69     20.53
 REAL TIME  *       102.00 SEC
 DISK USED  *         3.88 GB      
 **********************************************************************************************************************************


 PROGRAM * Intrinsic Basis Bonding Analysis (IBBA)          Author: G. Knizia

 Molecular orbitals read from record     2200.2  Type=UKS/ALPHA (state 1.1)
 Fock matrix read from record            2200.2  Type=UKS/TOTAL (state 1.1)
 Orbital energies read from record       2200.2  Type=UKS/ALPHA (state 1.1)
 Density matrix read from record         2200.2  Type=UKS/CHARGE (state 1.1)

 Number of core orbitals:           5 (   5 )
 Number of closed-shell orbitals:  16 (  16 )

 Basis set MINAO-AUTO-PP generated.      Number of basis functions:   35 

 Polarized AO type:                A = (O Ot + (1-O)(1-Ot)) P12
 Orthogonalization method:         Symmetric (Loewdin)
 Localization functional:          L = sum[A,i] <i|n_A|i>^4 -> max

 Localization group 1:  21 orbitals, occupancy  2.000
 Iterative localization: IB/PM,    7 iter; Final gradient 0.61E-08

 Bond order analysis:       [THRPRINT= 0.020]

   CEN ATOM   CEN ATOM     WIBERG.BO      RENORM.BO
     1   C  -   2   C       0.996221       0.991877
     1   C  -   5   H       0.955061       0.985598
     1   C  -   6   H       0.950071       0.979167
     1   C  -   7   H       0.950071       0.979167

     2   C  -   1   C       0.996221       0.991877
     2   C  -   9   C       0.995286       0.973050
     2   C  -   8   C       0.995286       0.973050
     2   C  -   3   O       0.936287       0.938603

     3   O  -   2   C       0.936287       0.938603
     3   O  -   4   H       0.854656       0.971591
     3   O  -   8   C       0.031337       0.016087
     3   O  -   9   C       0.031337       0.016087

     4   H  -   3   O       0.854656       0.971591

     5   H  -   1   C       0.955061       0.985598

     6   H  -   1   C       0.950071       0.979167

     7   H  -   1   C       0.950071       0.979167

     8   C  -   2   C       0.995286       0.973050
     8   C  -  14   H       0.954515       0.980007
     8   C  -  10   H       0.950692       0.978954
     8   C  -  12   H       0.950006       0.978626
     8   C  -   3   O       0.031337       0.016087

     9   C  -   2   C       0.995286       0.973050
     9   C  -  15   H       0.954515       0.980007
     9   C  -  11   H       0.950692       0.978954
     9   C  -  13   H       0.950006       0.978626
     9   C  -   3   O       0.031337       0.016087

    10   H  -   8   C       0.950692       0.978954

    11   H  -   9   C       0.950692       0.978954

    12   H  -   8   C       0.950006       0.978626

    13   H  -   9   C       0.950006       0.978626

    14   H  -   8   C       0.954515       0.980007

    15   H  -   9   C       0.954515       0.980007


 Valency analysis:

   CEN ATOM   TOT.VALENCE
     1   C       3.920076
     2   C       3.936103
     3   O       1.931455
     4   H       0.877356
     5   H       0.977012
     6   H       0.974294
     7   H       0.974294
     8   C       3.923002
     9   C       3.923002
    10   H       0.974333
    11   H       0.974333
    12   H       0.976190
    13   H       0.976190
    14   H       0.978834
    15   H       0.978834

 Total charge composition:

   CEN ATOM         s          p       ELECTRONS ->P.CHARGE
     1   C       3.04006    3.42404      6.46410   -0.46410
     2   C       2.93127    2.82524      5.75651    0.24349
     3   O       3.64621    4.92016      8.56637   -0.56637
     4   H       0.64979                 0.64979    0.35021
     5   H       0.84838                 0.84838    0.15162
     6   H       0.83967                 0.83967    0.16033
     7   H       0.83967                 0.83967    0.16033
     8   C       3.04705    3.43070      6.47775   -0.47775
     9   C       3.04705    3.43070      6.47775   -0.47775
    10   H       0.83979                 0.83979    0.16021
    11   H       0.83979                 0.83979    0.16021
    12   H       0.84570                 0.84570    0.15430
    13   H       0.84570                 0.84570    0.15430
    14   H       0.85451                 0.85451    0.14549
    15   H       0.85451                 0.85451    0.14549

 Total charge composition, AO contributions:

   CEN ATOM SHL      SPHERICAL COMPONENTS
     1   C  1s       1.99210
     1   C  2s       1.04796
     1   C  2p       1.04769    1.18172    1.19462

     2   C  1s       1.99366
     2   C  2s       0.93761
     2   C  2p       1.01218    0.79792    1.01514

     3   O  1s       1.99739
     3   O  2s       1.64883
     3   O  2p       1.48078    1.48890    1.95047

     4   H  1s       0.64979

     5   H  1s       0.84838

     6   H  1s       0.83967

     7   H  1s       0.83967

     8   C  1s       1.99219
     8   C  2s       1.05486
     8   C  2p       1.16250    1.16179    1.10641

     9   C  1s       1.99219
     9   C  2s       1.05486
     9   C  2p       1.16250    1.16179    1.10641

    10   H  1s       0.83979

    11   H  1s       0.83979

    12   H  1s       0.84570

    13   H  1s       0.84570

    14   H  1s       0.85451

    15   H  1s       0.85451

 Summary of localized orbital composition:   [THRPRINT= 0.020]

   ORB  GRP  ORB.ENERGY      CENTERS/CHARGES
     1   1   -18.465287      O  3   2.000
     2   1    -9.752644      C  2   2.000
     3   1    -9.661075      C  8   2.000
     4   1    -9.661075      C  9   2.000
     5   1    -9.655010      C  1   2.000
     6   1    -0.703018      O  3   1.353   H  4   0.636
     7   1    -0.665190      O  3   1.278   C  2   0.702
     8   1    -0.524444      C  8   1.008   C  2   0.976
     9   1    -0.524444      C  9   1.008   C  2   0.976
    10   1    -0.523985      C  1   0.991   C  2   0.983   (other: 0.026)
    11   1    -0.506598      O  3   1.980   (other: 0.020)
    12   1    -0.455102      C  9   1.149   H 13   0.834
    13   1    -0.455102      C  8   1.149   H 12   0.834
    14   1    -0.453827      C  8   1.140   H 14   0.846
    15   1    -0.453827      C  9   1.140   H 15   0.846
    16   1    -0.450985      C  1   1.144   H  5   0.840
    17   1    -0.448782      C  9   1.157   H 11   0.830
    18   1    -0.448782      C  8   1.157   H 10   0.830
    19   1    -0.444331      C  1   1.157   H  6   0.830
    20   1    -0.444331      C  1   1.157   H  7   0.830
    21   1    -0.259689      O  3   1.950   (other: 0.050)

 Localized orbitals saved to record      2200.2  (orbital set 4)


 **********************************************************************************************************************************
 DATASETS  * FILE   NREC   LENGTH (MB)   RECORD NAMES
              1      20     1151.61       500      610      700      900      950      970     1000      129      960     1100   
                                          VAR    BASINP    GEOM    SYMINP    ZMAT    AOBASIS   BASIS     P2S    ABASIS      S 
                                         1400     1410     1200     1210     1080     1600     1650     1300     1700     1800   
                                           T        V       H0       H01     AOSYM     SMH    MOLCAS    ERIS     OPER     GRID   

              2       5        5.06       700     1000      520     1800     2200   
                                         GEOM     BASIS   MCVARS    GRID      UKS  

 PROGRAMS   *        TOTAL      IBBA       UKS       INT
 CPU TIMES  *        68.43      0.06     47.69     20.53
 REAL TIME  *       102.15 SEC
 DISK USED  *         3.88 GB      
 **********************************************************************************************************************************
 Molecular orbitals read from record     2200.2  Type=UKS/LOCAL(IBO)  
 Occupation numbers read from record     2200.2  Type=UKS/LOCAL(IBO)  
 Orbital energies read from record       2200.2  Type=UKS/LOCAL(IBO)  
 Redundancy group numbers read from rec  2200.2  Type=UKS/BETA (state 1.1)

 IBBA/aug-cc-pVDZ energy=      0.000000000000

        UKS-SCF 
   -231.65001832
 **********************************************************************************************************************************
 Molpro calculation terminated
