
 Primary working directories    : /tmp/sb13343
 Secondary working directories  : /tmp/sb13343
 Wavefunction directory         : /panfs/panasas01/chem/sb13343/wfu/
 Main file repository           : /tmp/sb13343/

 SHA1      : b4a5b34a9e711420743f49e6833241d17c61fb3c
 NAME      : 2099.9.b4a5b34
 ARCHNAME  : linux/x86_64_openmp
 FC        : /cm/shared/languages/GCC-6.1/bin/gfortran
 BLASLIB   : -lblas
 id        : simonbennie

 Nodes     nprocs
 node32-018    1

 Using customized tuning parameters: mindgm=1; mindgv=20; mindgc=4; mindgr=1; noblas=0; minvec=7
 default implementation of scratch files=df  

 memory,500,m
 geomtyp=xyz
 nosym
 noorient
 geometry={
 H         -1.13405        1.76167        0.00000
 C         -1.32915        0.67205        0.00000
 C         -0.06360       -0.12883        0.00000
 C          0.67426       -0.31636        1.28970
 C          0.67426       -0.31636       -1.28970
 H         -1.94006        0.46750        0.88859
 H         -1.94006        0.46750       -0.88859
 H          1.28359        0.56876        1.55544
 H         -0.01165       -0.48291        2.13019
 H          1.36783       -1.16569        1.24157
 H          1.28359        0.56876       -1.55544
 H         -0.01165       -0.48291       -2.13019
 H          1.36783       -1.16569       -1.24157
 }
 basis={ default,svp }
 {ks,MM05,direct;wf,33,1,1}
 {ibba,bonds=1}

 Variables initialized (895), CPU time= 0.00 sec
 Commands  initialized (725), CPU time= 0.02 sec, 591 directives.
 Default parameters read. Elapsed time= 0.08 sec

 Checking input...
 Passed
1


                                         ***  PROGRAM SYSTEM MOLPRO  ***
                                       Copyright, TTI GmbH Stuttgart, 2015
                                    Version 2099.9 linked May 26 2017 16:03:21


 **********************************************************************************************************************************
 LABEL *                                                                                 
  64 bit serial version                                                                  DATE: 08-Jun-17          TIME: 20:39:53  
 **********************************************************************************************************************************

 SHA1:             b4a5b34a9e711420743f49e6833241d17c61fb3c
 **********************************************************************************************************************************
 SETTING GEOMTYP        =    XYZ

 Variable memory set to  500000000 words,  buffer space 

 ZSYMEL=NOSYM

 SETTING BASIS          =    SVP


 Recomputing integrals since basis changed


 Using spherical harmonics

 Library entry H      S def2-SVP             selected for orbital group  1
 Library entry H      P def2-SVP             selected for orbital group  1
 Library entry C      S def2-SVP             selected for orbital group  2
 Library entry C      P def2-SVP             selected for orbital group  2
 Library entry C      D def2-SVP             selected for orbital group  2


 PROGRAM * SEWARD (Integral evaluation for generally contracted gaussian basis sets)     Author: Roland Lindh, 1990

 Geometry written to block  1 of record 700


 Point group  C1  



 ATOMIC COORDINATES

 NR  ATOM    CHARGE       X              Y              Z

   1  H       1.00   -2.143043912    3.329073822    0.000000000
   2  C       6.00   -2.511729478    1.269990442    0.000000000
   3  C       6.00   -0.120186582   -0.243453417    0.000000000
   4  C       6.00    1.274166737   -0.597833757    2.437179783
   5  C       6.00    1.274166737   -0.597833757   -2.437179783
   6  H       1.00   -3.666182065    0.883446963    1.679191737
   7  H       1.00   -3.666182065    0.883446963   -1.679191737
   8  H       1.00    2.425633556    1.074800631    2.939355603
   9  H       1.00   -0.022015309   -0.912567643    4.025475693
  10  H       1.00    2.584824085   -2.202834846    2.346227264
  11  H       1.00    2.425633556    1.074800631   -2.939355603
  12  H       1.00   -0.022015309   -0.912567643   -4.025475693
  13  H       1.00    2.584824085   -2.202834846   -2.346227264

 Bond lengths in Bohr (Angstrom)

 1-2  2.091830159  2-3  2.830192527  2-6  2.074092940  2-7  2.074092940  3-4  2.830132841
     ( 1.106948849)     ( 1.497673388)     ( 1.097562717)     ( 1.097562717)     ( 1.497641803)

  3- 5  2.830132841   4- 8  2.091832255   4- 9  2.074085151   4-10  2.074156104   5-11  2.091832255
       ( 1.497641803)       ( 1.106949959)       ( 1.097558596)       ( 1.097596142)       ( 1.106949959)

  5-12  2.074085151   5-13  2.074156104
       ( 1.097558596)       ( 1.097596142)

 Bond angles

  1-2-3  112.17549786   1-2-6  106.35284965   1-2-7  106.35284965   2-3-4  118.89987932

  2-3-5  118.89987932   3-2-6  111.75744418   3-2-7  111.75744418   3-4-8  112.19808176

  3- 4- 9  111.75014522   3- 4-10  111.74379558   3- 5-11  112.19808176   3- 5-12  111.75014522

  3- 5-13  111.74379558   4- 3- 5  118.89276928   6- 2- 7  108.11431090   8- 4- 9  106.34995457

  8- 4-10  106.34572146   9- 4-10  108.12296896  11- 5-12  106.34995457  11- 5-13  106.34572146

 12- 5-13  108.12296896

 NUCLEAR CHARGE:                   33
 NUMBER OF PRIMITIVE AOS:         163
 NUMBER OF SYMMETRY AOS:          159
 NUMBER OF CONTRACTIONS:          101   ( 101A   )
 NUMBER OF CORE ORBITALS:           4   (   4A   )
 NUMBER OF VALENCE ORBITALS:       25   (  25A   )


 NUCLEAR REPULSION ENERGY  124.92676597


 Eigenvalues of metric

         1 0.371E-02 0.424E-02 0.424E-02 0.242E-01 0.242E-01 0.268E-01 0.277E-01 0.371E-01


 Contracted 2-electron integrals neglected if value below      1.0D-11
 AO integral compression algorithm  1   Integral accuracy      1.0D-11

     53.477 MB (compressed) written to integral file ( 46.4%)


 NUMBER OF SORTED TWO-ELECTRON INTEGRALS:   13268976.     BUFFER LENGTH:  32768
 NUMBER OF SEGMENTS:   1  SEGMENT LENGTH:   13268976      RECORD LENGTH: 524288

 Memory used in sort:      13.83 MW

 SORT1 READ    14422061. AND WROTE    12225547. INTEGRALS IN     35 RECORDS. CPU TIME:     0.17 SEC, REAL TIME:     0.33 SEC
 SORT2 READ    12225547. AND WROTE    13268976. INTEGRALS IN    204 RECORDS. CPU TIME:     0.32 SEC, REAL TIME:     0.40 SEC

 FILE SIZES:   FILE 1:    84.0 MBYTE,  FILE 4:   146.8 MBYTE,   TOTAL:    230.9 MBYTE

 OPERATOR DM      FOR CENTER  0  COORDINATES:    0.000000    0.000000    0.000000


 **********************************************************************************************************************************
 DATASETS  * FILE   NREC   LENGTH (MB)   RECORD NAMES
              1      19       77.16       500      610      700      900      950      970     1000      129      960     1100   
                                          VAR    BASINP    GEOM    SYMINP    ZMAT    AOBASIS   BASIS     P2S    ABASIS      S 
                                         1400     1410     1200     1210     1080     1600     1650     1300     1700   
                                           T        V       H0       H01     AOSYM     SMH    MOLCAS    ERIS     OPER   

 PROGRAMS   *        TOTAL       INT
 CPU TIMES  *         2.19      2.05
 REAL TIME  *         2.83 SEC
 DISK USED  *       231.35 MB      
 **********************************************************************************************************************************

 Density functional group MM05=M05X+M05C
 Functional: M05X(Automatically generated (new) M05X)                          Gradient terms: 2
 Functional: M05C(Automatically generated (new) M05C)                          Gradient terms: 2
 Use grid at  1800.2


 Exact exchange will be calculated, factor:  0.2800

 Functional: M05X                      Factor:  0.7200
 Functional: M05C                      Factor:  1.0000

 Generated new metagrid on record  1800.2 with target accuracy 1.0D-06 and 45406 points in CPU time    1.4
 Computed new grid on record 1800.1 in CPU time    1.5
  161317 words reserved for DFT integration

 PROGRAM * RKS-SCF (Restricted open shell Kohn-Sham)     Authors: W. Meyer, H.-J. Werner, P.J. Knowles, 1993

 NUMBER OF ELECTRONS:      17+   16-    SPACE SYMMETRY=1    SPIN SYMMETRY: Doublet 
 CONVERGENCE THRESHOLDS:    1.00E-05 (Density)    1.00E-06 (Energy)
 MAX. NUMBER OF ITERATIONS:       60
 INTERPOLATION TYPE:            DIIS
 INTERPOLATION STEPS:              2 (START)      1 (STEP)
 LEVEL SHIFTS:                 -0.60 (CLOSED) -0.30 (OPEN) 



 Use fine grid record 1800.2 for energy threshold  1.0D-06
 Orbital guess generated from atomic densities. Full valence occupancy:   17

 Molecular orbital dump at record        2100.2

 Initial alpha occupancy:  17
 Initial beta  occupancy:  16
 Wave function symmetry:    1

 ITERATION    DDIFF          GRAD             ENERGY        2-EL.EN.            DIPOLE MOMENTS         DIIS   ORB.
    1      0.000D+00      0.000D+00      -157.37727149    397.123102    0.13687    0.27676    0.00000    0    start
    2      0.000D+00      0.929D-02      -157.52408092    384.823086    0.04008    0.08133    0.00000    1    diag,B
    3      0.964D-02      0.279D-02      -157.53470529    386.794618    0.05087    0.10350    0.00000    2    diag,B
    4      0.261D-02      0.620D-03      -157.53630766    386.561138    0.04296    0.08844    0.00000    3    diag,B
    5      0.153D-02      0.246D-03      -157.53658367    386.546235    0.04219    0.08777    0.00000    4    diag,B
    6      0.695D-03      0.734D-04      -157.53661073    386.520936    0.04091    0.08562    0.00000    5    diag,B
    7      0.244D-03      0.160D-04      -157.53661230    386.522631    0.04107    0.08608    0.00000    6    fixocc
    8      0.678D-04      0.483D-05      -157.53661248    386.523121    0.04108    0.08614    0.00000    7    diag,B
    9      0.240D-04      0.135D-05      -157.53661249    386.523088    0.04111    0.08621    0.00000    8    diag,B
   10      0.561D-05      0.436D-06      -157.53661249    386.523053    0.04111    0.08620    0.00000    0    orth

 Final alpha occupancy:  17
 Final beta  occupancy:  16

 !RKS STATE 1.1 Energy               -157.536612494549
 Nuclear energy                       124.92676597
 One-electron energy                 -457.53752745
 Two-electron energy                  193.26152674
 Density functional                   -18.18737776     M05X=-23.82213918 M05C= -1.03543755
 Virial quotient                       -1.01192714
 !RKS STATE 1.1 Dipole moment           0.04110774     0.08620266     0.00000000
 Dipole moment /Debye                   0.10447861     0.21909097     0.00000000

 Orbital energies:

         1.1          2.1          3.1          4.1          5.1          6.1          7.1          8.1          9.1         10.1
    -10.214099   -10.209430   -10.208978   -10.208960    -0.803965    -0.699139    -0.698863    -0.533673    -0.445444    -0.445327

        11.1         12.1         13.1         14.1         15.1         16.1         17.1         18.1         19.1
     -0.438849    -0.389821    -0.389648    -0.373208    -0.349966    -0.349903    -0.182812     0.058549     0.110991

 HOMO     17.1    -0.182812 =      -4.9746eV
 LUMO     18.1     0.058549 =       1.5932eV
 LUMO-HOMO         0.241361 =       6.5678eV


 **********************************************************************************************************************************
 DATASETS  * FILE   NREC   LENGTH (MB)   RECORD NAMES
              1      20       78.61       500      610      700      900      950      970     1000      129      960     1100   
                                          VAR    BASINP    GEOM    SYMINP    ZMAT    AOBASIS   BASIS     P2S    ABASIS      S 
                                         1400     1410     1200     1210     1080     1600     1650     1300     1700     1800   
                                           T        V       H0       H01     AOSYM     SMH    MOLCAS    ERIS     OPER     GRID   

              2       5        3.26       700     1000      520     1800     2100   
                                         GEOM     BASIS   MCVARS    GRID      RKS  

 PROGRAMS   *        TOTAL        KS       INT
 CPU TIMES  *        54.85     52.66      2.05
 REAL TIME  *        56.57 SEC
 DISK USED  *       231.35 MB      
 **********************************************************************************************************************************


 PROGRAM * Intrinsic Basis Bonding Analysis (IBBA)          Author: G. Knizia

 Molecular orbitals read from record     2100.2  Type=RKS/CANONICAL (state 1.1)
 Fock matrix read from record            2100.2  Type=RKS/TOTAL (state 1.1)
 Orbital energies read from record       2100.2  Type=RKS/CANONICAL (state 1.1)
 Density matrix read from record         2100.2  Type=RKS/CHARGE (state 1.1)

 Number of core orbitals:           4 (   4 )
 Number of closed-shell orbitals:  12 (  12 )
 Number of active  orbitals:        1 (   1 )

 Basis set MINAO-AUTO-PP generated.      Number of basis functions:   29 

 Polarized AO type:                A = (O Ot + (1-O)(1-Ot)) P12
 Orthogonalization method:         Symmetric (Loewdin)
 Localization functional:          L = sum[A,i] <i|n_A|i>^4 -> max

 Localization group 1:  16 orbitals, occupancy  2.000
 Iterative localization: IB/PM,    7 iter; Final gradient 0.23E-08

 Bond order analysis:       [THRPRINT= 0.020]

   CEN ATOM   CEN ATOM     WIBERG.BO      RENORM.BO
     1   H  -   2   C       0.926206       0.998569
     1   H  -   3   C       0.033578       0.205125

     2   C  -   3   C       1.070377       1.317478
     2   C  -   6   H       0.955962       0.987629
     2   C  -   7   H       0.955962       0.987629
     2   C  -   1   H       0.926206       0.998569

     3   C  -   2   C       1.070377       1.317478
     3   C  -   5   C       1.069799       1.315570
     3   C  -   4   C       1.069799       1.315570
     3   C  -   1   H       0.033578       0.205125
     3   C  -  11   H       0.033446       0.204202
     3   C  -   8   H       0.033446       0.204202

     4   C  -   3   C       1.069799       1.315570
     4   C  -  10   H       0.956175       0.987680
     4   C  -   9   H       0.956118       0.987643
     4   C  -   8   H       0.926495       0.998576

     5   C  -   3   C       1.069799       1.315570
     5   C  -  13   H       0.956175       0.987680
     5   C  -  12   H       0.956118       0.987643
     5   C  -  11   H       0.926495       0.998576

     6   H  -   2   C       0.955962       0.987629

     7   H  -   2   C       0.955962       0.987629

     8   H  -   4   C       0.926495       0.998576
     8   H  -   3   C       0.033446       0.204202

     9   H  -   4   C       0.956118       0.987643

    10   H  -   4   C       0.956175       0.987680

    11   H  -   5   C       0.926495       0.998576
    11   H  -   3   C       0.033446       0.204202

    12   H  -   5   C       0.956118       0.987643

    13   H  -   5   C       0.956175       0.987680


 Valency analysis:

   CEN ATOM   TOT.VALENCE
     1   H       0.969764
     2   C       3.940785
     3   C       3.350928
     4   C       3.940908
     5   C       3.940908
     6   H       0.979522
     7   H       0.979522
     8   H       0.969874
     9   H       0.979624
    10   H       0.979571
    11   H       0.969874
    12   H       0.979624
    13   H       0.979571
 Localization group 2:   1 orbitals, occupancy  1.000
 Iterative localization: IB/PM,    1 iter; Final gradient 0.00E+00

 Bond order analysis:       [THRPRINT= 0.020]

   CEN ATOM   CEN ATOM     WIBERG.BO      RENORM.BO
     1   H  -   3   C       0.074115       0.500000


     3   C  -   1   H       0.074115       0.500000
     3   C  -  11   H       0.073894       0.500000
     3   C  -   8   H       0.073894       0.500000





     8   H  -   3   C       0.073894       0.500000



    11   H  -   3   C       0.073894       0.500000




 Valency analysis:

   CEN ATOM   TOT.VALENCE
     1   H       0.087121
     2   C       0.002338
     3   C       0.305456
     4   C       0.002323
     5   C       0.002323
     6   H       0.015900
     7   H       0.015900
     8   H       0.086873
     9   H       0.015880
    10   H       0.015796
    11   H       0.086873
    12   H       0.015880
    13   H       0.015796

 Total charge composition:

   CEN ATOM         s          p       ELECTRONS ->P.CHARGE
     1   H       0.87176                 0.87176    0.12824
     2   C       3.02082    3.38616      6.40698   -0.40698
     3   C       2.96565    3.00719      5.97284    0.02716
     4   C       3.02092    3.38615      6.40707   -0.40707
     5   C       3.02092    3.38615      6.40707   -0.40707
     6   H       0.86491                 0.86491    0.13509
     7   H       0.86491                 0.86491    0.13509
     8   H       0.87194                 0.87194    0.12806
     9   H       0.86526                 0.86526    0.13474
    10   H       0.86503                 0.86503    0.13497
    11   H       0.87194                 0.87194    0.12806
    12   H       0.86526                 0.86526    0.13474
    13   H       0.86503                 0.86503    0.13497

 Total charge composition, AO contributions:

   CEN ATOM SHL      SPHERICAL COMPONENTS
     1   H  1s       0.87176

     2   C  1s       1.99067
     2   C  2s       1.03015
     2   C  2p       1.09514    1.12831    1.16271

     3   C  1s       1.99244
     3   C  2s       0.97321
     3   C  2p       1.00342    0.99947    1.00430

     4   C  1s       1.99067
     4   C  2s       1.03025
     4   C  2p       1.13814    1.15351    1.09451

     5   C  1s       1.99067
     5   C  2s       1.03025
     5   C  2p       1.13814    1.15351    1.09451

     6   H  1s       0.86491

     7   H  1s       0.86491

     8   H  1s       0.87194

     9   H  1s       0.86526

    10   H  1s       0.86503

    11   H  1s       0.87194

    12   H  1s       0.86526

    13   H  1s       0.86503

 Active orbital charges:

   CEN ATOM         s          p       ELECTRONS ->SPIN.DEN
     1   H       0.04564                 0.04564    0.04564
     2   C       0.00017    0.00100      0.00117    0.00117
     3   C       0.01414    0.79774      0.81188    0.81188
     4   C       0.00017    0.00099      0.00116    0.00116
     5   C       0.00017    0.00099      0.00116    0.00116
     6   H       0.00801                 0.00801    0.00801
     7   H       0.00801                 0.00801    0.00801
     8   H       0.04551                 0.04551    0.04551
     9   H       0.00800                 0.00800    0.00800
    10   H       0.00796                 0.00796    0.00796
    11   H       0.04551                 0.04551    0.04551
    12   H       0.00800                 0.00800    0.00800
    13   H       0.00796                 0.00796    0.00796

 Active orbital charges, AO contributions:

   CEN ATOM SHL      SPHERICAL COMPONENTS
     1   H  1s       0.04564

     2   C  1s       0.00000
     2   C  2s       0.00017
     2   C  2p       0.00004    0.00095    0.00000

     3   C  1s       0.00001
     3   C  2s       0.01413
     3   C  2p       0.15645    0.64129    0.00000

     4   C  1s       0.00000
     4   C  2s       0.00017
     4   C  2p       0.00039    0.00031    0.00029

     5   C  1s       0.00000
     5   C  2s       0.00017
     5   C  2p       0.00039    0.00031    0.00029

     6   H  1s       0.00801

     7   H  1s       0.00801

     8   H  1s       0.04551

     9   H  1s       0.00800

    10   H  1s       0.00796

    11   H  1s       0.04551

    12   H  1s       0.00800

    13   H  1s       0.00796

 Summary of localized orbital composition:   [THRPRINT= 0.020]

   ORB  GRP  ORB.ENERGY      CENTERS/CHARGES
     1   1   -10.119058      C  3   2.000
     2   1   -10.092794      C  2   2.000
     3   1   -10.092330      C  4   2.000
     4   1   -10.092330      C  5   2.000
     5   1    -0.605254      C  2   1.008   C  3   0.979
     6   1    -0.605109      C  5   1.009   C  3   0.978
     7   1    -0.605109      C  4   1.009   C  3   0.978
     8   1    -0.507556      C  2   1.127   H  1   0.823   C  3   0.048
     9   1    -0.507307      C  4   1.127   H  8   0.823   C  3   0.048
    10   1    -0.507307      C  5   1.127   H 11   0.823   C  3   0.048
    11   1    -0.504473      C  2   1.132   H  7   0.851
    12   1    -0.504473      C  2   1.132   H  6   0.851
    13   1    -0.504126      C  5   1.131   H 13   0.851
    14   1    -0.504126      C  4   1.131   H 10   0.851
    15   1    -0.503964      C  4   1.131   H  9   0.851
    16   1    -0.503964      C  5   1.131   H 12   0.851
    17   2    -0.095175      C  3   0.812   H  1   0.046   H 11   0.046   H  8   0.046   (other: 0.051)

 Localized orbitals saved to record      2100.2  (orbital set 2)


 **********************************************************************************************************************************
 DATASETS  * FILE   NREC   LENGTH (MB)   RECORD NAMES
              1      20       78.61       500      610      700      900      950      970     1000      129      960     1100   
                                          VAR    BASINP    GEOM    SYMINP    ZMAT    AOBASIS   BASIS     P2S    ABASIS      S 
                                         1400     1410     1200     1210     1080     1600     1650     1300     1700     1800   
                                           T        V       H0       H01     AOSYM     SMH    MOLCAS    ERIS     OPER     GRID   

              2       5        3.34       700     1000      520     1800     2100   
                                         GEOM     BASIS   MCVARS    GRID      RKS  

 PROGRAMS   *        TOTAL      IBBA        KS       INT
 CPU TIMES  *        54.89      0.03     52.66      2.05
 REAL TIME  *        56.68 SEC
 DISK USED  *       231.35 MB      
 **********************************************************************************************************************************
 Molecular orbitals read from record     2100.2  Type=RKS/LOCAL(IBO)  
 Occupation numbers read from record     2100.2  Type=RKS/LOCAL(IBO)  
 Orbital energies read from record       2100.2  Type=RKS/LOCAL(IBO)  
 Redundancy group numbers read from rec  2100.2  Type=RKS/LOCAL(IBO)  

 IBBA/SVP energy=      0.000000000000

        KS-SCF  
   -157.53661249
 **********************************************************************************************************************************
 Molpro calculation terminated
