
 Primary working directories    : /tmp/sb13343
 Secondary working directories  : /tmp/sb13343
 Wavefunction directory         : /panfs/panasas01/chem/sb13343/wfu/
 Main file repository           : /tmp/sb13343/

 SHA1      : b4a5b34a9e711420743f49e6833241d17c61fb3c
 NAME      : 2099.9.b4a5b34
 ARCHNAME  : linux/x86_64_openmp
 FC        : /cm/shared/languages/GCC-6.1/bin/gfortran
 BLASLIB   : -lblas
 id        : simonbennie

 Nodes     nprocs
 node32-007    1

 Using customized tuning parameters: mindgm=1; mindgv=20; mindgc=4; mindgr=1; noblas=0; minvec=7
 default implementation of scratch files=df  

 memory,500,m
 geomtyp=xyz
 nosym
 noorient
 geometry={
 C         -1.53233        0.02247        0.00000
 C         -0.00192        0.01421        0.00000
 O          0.37239        1.40356        0.00000
 H          1.34248        1.44036        0.00000
 H         -1.92991       -0.99819        0.00000
 H         -1.90797        0.54382       -0.88653
 H         -1.90797        0.54382        0.88653
 C          0.54303       -0.66466       -1.26580
 C          0.54303       -0.66466        1.26580
 H          0.17836       -0.14752       -2.15943
 H          0.17836       -0.14752        2.15943
 H          0.23752       -1.71600       -1.32280
 H          0.23752       -1.71600        1.32280
 H          1.64084       -0.63767       -1.28032
 H          1.64084       -0.63767        1.28032
 }
 basis={ default,sto-3g }
 {ks,B97R,direct;wf,42,1,0}
 {ibba,bonds=1}

 Variables initialized (895), CPU time= 0.00 sec
 Commands  initialized (725), CPU time= 0.02 sec, 591 directives.
 Default parameters read. Elapsed time= 0.08 sec

 Checking input...
 Passed
1


                                         ***  PROGRAM SYSTEM MOLPRO  ***
                                       Copyright, TTI GmbH Stuttgart, 2015
                                    Version 2099.9 linked May 26 2017 16:03:21


 **********************************************************************************************************************************
 LABEL *                                                                                 
  64 bit serial version                                                                  DATE: 09-Jun-17          TIME: 03:18:07  
 **********************************************************************************************************************************

 SHA1:             b4a5b34a9e711420743f49e6833241d17c61fb3c
 **********************************************************************************************************************************
 SETTING GEOMTYP        =    XYZ

 Variable memory set to  500000000 words,  buffer space 

 ZSYMEL=NOSYM

 SETTING BASIS          =    STO-3G


 Recomputing integrals since basis changed


 Using spherical harmonics

 Library entry C      S STO-3G               selected for orbital group  1
 Library entry C      P STO-3G               selected for orbital group  1
 Library entry O      S STO-3G               selected for orbital group  2
 Library entry O      P STO-3G               selected for orbital group  2
 Library entry H      S STO-3G               selected for orbital group  3


 PROGRAM * SEWARD (Integral evaluation for generally contracted gaussian basis sets)     Author: Roland Lindh, 1990

 Geometry written to block  1 of record 700


 Point group  C1  



 ATOMIC COORDINATES

 NR  ATOM    CHARGE       X              Y              Z

   1  C       6.00   -2.895684032    0.042462146    0.000000000
   2  C       6.00   -0.003628274    0.026853008    0.000000000
   3  O       8.00    0.703715112    2.652343999    0.000000000
   4  H       1.00    2.536919528    2.721885921    0.000000000
   5  H       1.00   -3.647001345   -1.886305720    0.000000000
   6  H       1.00   -3.605540754    1.027670861   -1.675298901
   7  H       1.00   -3.605540754    1.027670861    1.675298901
   8  C       6.00    1.026177977   -1.256025366   -2.392015328
   9  C       6.00    1.026177977   -1.256025366    2.392015328
  10  H       1.00    0.337051552   -0.278772398   -4.080731285
  11  H       1.00    0.337051552   -0.278772398    4.080731285
  12  H       1.00    0.448847749   -3.242770030   -2.499729718
  13  H       1.00    0.448847749   -3.242770030    2.499729718
  14  H       1.00    3.100738214   -1.205021658   -2.419454152
  15  H       1.00    3.100738214   -1.205021658    2.419454152

 Bond lengths in Bohr (Angstrom)

 1-2  2.892097881  1-5  2.069933136  1-6  2.069096224  1-7  2.069096224  2-3  2.719106031
     ( 1.530432290)     ( 1.095361444)     ( 1.094918569)     ( 1.094918569)     ( 1.438888946)

  2- 8  2.903104402   2- 9  2.903104402   3- 4  1.834522965   8-10  2.069222119   8-12  2.071730422
       ( 1.536256691)       ( 1.536256691)       ( 0.970787746)       ( 1.094985190)       ( 1.096312526)

  8-14  2.075368508   9-11  2.069222119   9-13  2.071730422   9-15  2.075368508
       ( 1.098237719)       ( 1.094985190)       ( 1.096312526)       ( 1.098237719)

 Bond angles

  1-2-3  104.76902697   1-2-8  110.92255387   1-2-9  110.92255387   2-1-5  110.97328220

  2- 1- 6  110.22090701   2- 1- 7  110.22090701   2- 3- 4  107.25071562   2- 8-10  110.21836376

  2- 8-12  111.57747468   2- 8-14  110.77023896   2- 9-11  110.21836376   2- 9-13  111.57747468

  2- 9-15  110.77023896   3- 2- 8  109.53648747   3- 2- 9  109.53648747   5- 1- 6  108.61190457

  5- 1- 7  108.61190457   6- 1- 7  108.12870271   8- 2- 9  110.96453384  10- 8-12  108.52192632

 10- 8-14  108.08997829  11- 9-13  108.52192632  11- 9-15  108.08997829  12- 8-14  107.54424578

 13- 9-15  107.54424578

 NUCLEAR CHARGE:                   42
 NUMBER OF PRIMITIVE AOS:         105
 NUMBER OF SYMMETRY AOS:          105
 NUMBER OF CONTRACTIONS:           35   (  35A   )
 NUMBER OF CORE ORBITALS:           5   (   5A   )
 NUMBER OF VALENCE ORBITALS:       30   (  30A   )


 NUCLEAR REPULSION ENERGY  198.77359127


 Eigenvalues of metric

         1 0.207E+00 0.227E+00 0.228E+00 0.304E+00 0.354E+00 0.360E+00 0.361E+00 0.363E+00


 Contracted 2-electron integrals neglected if value below      1.0D-11
 AO integral compression algorithm  1   Integral accuracy      1.0D-11

     1.573 MB (compressed) written to integral file ( 87.8%)


 NUMBER OF SORTED TWO-ELECTRON INTEGRALS:     198765.     BUFFER LENGTH:  32768
 NUMBER OF SEGMENTS:   1  SEGMENT LENGTH:     198765      RECORD LENGTH: 524288

 Memory used in sort:       0.76 MW

 SORT1 READ      224962. AND WROTE      188577. INTEGRALS IN      1 RECORDS. CPU TIME:     0.01 SEC, REAL TIME:     0.01 SEC
 SORT2 READ      188577. AND WROTE      198765. INTEGRALS IN      6 RECORDS. CPU TIME:     0.02 SEC, REAL TIME:     0.02 SEC

 FILE SIZES:   FILE 1:    31.8 MBYTE,  FILE 4:     4.2 MBYTE,   TOTAL:     36.0 MBYTE

 OPERATOR DM      FOR CENTER  0  COORDINATES:    0.000000    0.000000    0.000000


 **********************************************************************************************************************************
 DATASETS  * FILE   NREC   LENGTH (MB)   RECORD NAMES
              1      19       31.10       500      610      700      900      950      970     1000      129      960     1100   
                                          VAR    BASINP    GEOM    SYMINP    ZMAT    AOBASIS   BASIS     P2S    ABASIS      S 
                                         1400     1410     1200     1210     1080     1600     1650     1300     1700   
                                           T        V       H0       H01     AOSYM     SMH    MOLCAS    ERIS     OPER   

 PROGRAMS   *        TOTAL       INT
 CPU TIMES  *         0.61      0.45
 REAL TIME  *         1.27 SEC
 DISK USED  *        36.55 MB      
 **********************************************************************************************************************************

 Density functional group B97R=B97RDF
 Functional: B97RDF(Automatically generated (new) B97RDF)                      Gradient terms: 1
 Use grid at  1800.2


 Exact exchange will be calculated, factor:  0.2100

 Functional: B97RDF                    Factor:  1.0000

 Generated new metagrid on record  1800.2 with target accuracy 1.0D-06 and 53396 points in CPU time    1.7
 Computed new grid on record 1800.1 in CPU time    1.9
   32369 words reserved for DFT integration

 PROGRAM * RKS-SCF (Restricted closed shell Kohn-Sham)     Authors: W. Meyer, H.-J. Werner, P.J. Knowles, 1993

 NUMBER OF ELECTRONS:      21+   21-    SPACE SYMMETRY=1    SPIN SYMMETRY: Singlet 
 CONVERGENCE THRESHOLDS:    1.00E-05 (Density)    1.00E-06 (Energy)
 MAX. NUMBER OF ITERATIONS:       60
 INTERPOLATION TYPE:            DIIS
 INTERPOLATION STEPS:              2 (START)      1 (STEP)
 LEVEL SHIFTS:                  0.00 (CLOSED)  0.00 (OPEN) 



 Use fine grid record 1800.2 for energy threshold  1.0D-06
 Orbital guess generated from atomic densities. Full valence occupancy:   21

 Molecular orbital dump at record        2100.2

 Initial occupancy:  21

 ITERATION    DDIFF          GRAD             ENERGY        2-EL.EN.            DIPOLE MOMENTS         DIIS   ORB.
    1      0.000D+00      0.000D+00      -230.37870739    624.959023    0.76160   -1.09935    0.00000    0    start
    2      0.000D+00      0.269D-01      -230.52740908    599.791917   -0.09919    0.06280    0.00000    1    diag
    3      0.834D-01      0.195D-01      -230.67857253    609.898434    0.33792   -0.36558    0.00000    2    diag
    4      0.357D-01      0.793D-03      -230.67877751    609.923467    0.32424   -0.39524    0.00000    3    diag
    5      0.183D-02      0.301D-03      -230.67881081    609.902056    0.32080   -0.38733    0.00000    4    diag
    6      0.529D-03      0.200D-04      -230.67881094    609.903581    0.32188   -0.38705    0.00000    5    diag
    7      0.485D-04      0.102D-04      -230.67881098    609.903005    0.32191   -0.38743    0.00000    6    diag
    8      0.173D-04      0.122D-05      -230.67881098    609.903037    0.32184   -0.38735    0.00000    7    diag
    9      0.219D-05      0.270D-06      -230.67881098    609.903030    0.32186   -0.38737    0.00000    0    orth

 Final occupancy:  21

 !RKS STATE 1.1 Energy               -230.678810977573
 Nuclear energy                       198.77359127
 One-electron energy                 -707.17998872
 Two-electron energy                  304.95151521
 SCF exchange energy                  -32.70266229     Factor= 0.2100
 Density functional                   -27.22392874     B97RDF=-27.22392874
 Virial quotient                       -1.01525820
 !RKS STATE 1.1 Dipole moment           0.32185709    -0.38736977     0.00000000
 Dipole moment /Debye                   0.81802555    -0.98453126     0.00000000

 Orbital energies:

         1.1          2.1          3.1          4.1          5.1          6.1          7.1          8.1          9.1         10.1
    -18.856468   -10.070289   -10.007955   -10.007881   -10.007122    -0.950452    -0.746002    -0.657495    -0.656125    -0.516788

        11.1         12.1         13.1         14.1         15.1         16.1         17.1         18.1         19.1         20.1
     -0.435893    -0.407611    -0.407240    -0.364310    -0.358921    -0.333490    -0.333010    -0.300712    -0.295719    -0.207012

        21.1         22.1         23.1
     -0.129490     0.306333     0.366032

 HOMO     21.1    -0.129490 =      -3.5236eV
 LUMO     22.1     0.306333 =       8.3357eV
 LUMO-HOMO         0.435823 =      11.8593eV


 **********************************************************************************************************************************
 DATASETS  * FILE   NREC   LENGTH (MB)   RECORD NAMES
              1      20       32.81       500      610      700      900      950      970     1000      129      960     1100   
                                          VAR    BASINP    GEOM    SYMINP    ZMAT    AOBASIS   BASIS     P2S    ABASIS      S 
                                         1400     1410     1200     1210     1080     1600     1650     1300     1700     1800   
                                           T        V       H0       H01     AOSYM     SMH    MOLCAS    ERIS     OPER     GRID   

              2       5        3.02       700     1000      520     1800     2100   
                                         GEOM     BASIS   MCVARS    GRID      RKS  

 PROGRAMS   *        TOTAL        KS       INT
 CPU TIMES  *         5.29      4.68      0.45
 REAL TIME  *         6.38 SEC
 DISK USED  *        36.55 MB      
 **********************************************************************************************************************************


 PROGRAM * Intrinsic Basis Bonding Analysis (IBBA)          Author: G. Knizia

 Molecular orbitals read from record     2100.2  Type=RKS/CANONICAL (state 1.1)
 Fock matrix read from record            2100.2  Type=RKS/TOTAL (state 1.1)
 Orbital energies read from record       2100.2  Type=RKS/CANONICAL (state 1.1)
 Density matrix read from record         2100.2  Type=RKS/CHARGE (state 1.1)

 Number of core orbitals:           5 (   5 )
 Number of closed-shell orbitals:  16 (  16 )

 Basis set MINAO-AUTO-PP generated.      Number of basis functions:   35 

 Polarized AO type:                A = (O Ot + (1-O)(1-Ot)) P12
 Orthogonalization method:         Symmetric (Loewdin)
 Localization functional:          L = sum[A,i] <i|n_A|i>^4 -> max

 Localization group 1:  21 orbitals, occupancy  2.000
 Iterative localization: IB/PM,    7 iter; Final gradient 0.13E-08

 Bond order analysis:       [THRPRINT= 0.020]

   CEN ATOM   CEN ATOM     WIBERG.BO      RENORM.BO
     1   C  -   2   C       0.990824       0.986609
     1   C  -   5   H       0.967848       0.990272
     1   C  -   6   H       0.964201       0.987441
     1   C  -   7   H       0.964201       0.987441

     2   C  -   3   O       0.998371       0.981027
     2   C  -   1   C       0.990824       0.986609
     2   C  -   8   C       0.987858       0.964679
     2   C  -   9   C       0.987858       0.964679

     3   O  -   2   C       0.998371       0.981027
     3   O  -   4   H       0.931162       0.982424
     3   O  -   9   C       0.025627       0.013281
     3   O  -   8   C       0.025627       0.013281

     4   H  -   3   O       0.931162       0.982424

     5   H  -   1   C       0.967848       0.990272

     6   H  -   1   C       0.964201       0.987441

     7   H  -   1   C       0.964201       0.987441

     8   C  -   2   C       0.987858       0.964679
     8   C  -  14   H       0.967054       0.986703
     8   C  -  12   H       0.965843       0.988382
     8   C  -  10   H       0.964989       0.987211
     8   C  -   3   O       0.025627       0.013281

     9   C  -   2   C       0.987858       0.964679
     9   C  -  15   H       0.967054       0.986703
     9   C  -  13   H       0.965843       0.988382
     9   C  -  11   H       0.964989       0.987211
     9   C  -   3   O       0.025627       0.013281

    10   H  -   8   C       0.964989       0.987211

    11   H  -   9   C       0.964989       0.987211

    12   H  -   8   C       0.965843       0.988382

    13   H  -   9   C       0.965843       0.988382

    14   H  -   8   C       0.967054       0.986703

    15   H  -   9   C       0.967054       0.986703


 Valency analysis:

   CEN ATOM   TOT.VALENCE
     1   C       3.935402
     2   C       3.974074
     3   O       2.028373
     4   H       0.948113
     5   H       0.983475
     6   H       0.981813
     7   H       0.981813
     8   C       3.938075
     9   C       3.938075
    10   H       0.982330
    11   H       0.982330
    12   H       0.982938
    13   H       0.982938
    14   H       0.984763
    15   H       0.984763

 Total charge composition:

   CEN ATOM         s          p       ELECTRONS ->P.CHARGE
     1   C       2.99851    3.38860      6.38711   -0.38711
     2   C       2.94529    2.93069      5.87597    0.12403
     3   O       3.68090    4.65587      8.33677   -0.33677
     4   H       0.77221                 0.77221    0.22779
     5   H       0.87145                 0.87145    0.12855
     6   H       0.86514                 0.86514    0.13486
     7   H       0.86514                 0.86514    0.13486
     8   C       3.00345    3.39663      6.40009   -0.40009
     9   C       3.00345    3.39663      6.40009   -0.40009
    10   H       0.86707                 0.86707    0.13293
    11   H       0.86707                 0.86707    0.13293
    12   H       0.86938                 0.86938    0.13062
    13   H       0.86938                 0.86938    0.13062
    14   H       0.87656                 0.87656    0.12344
    15   H       0.87656                 0.87656    0.12344

 Total charge composition, AO contributions:

   CEN ATOM SHL      SPHERICAL COMPONENTS
     1   C  1s       1.99174
     1   C  2s       1.00677
     1   C  2p       1.05009    1.16526    1.17325

     2   C  1s       1.99317
     2   C  2s       0.95212
     2   C  2p       1.02933    0.87684    1.02451

     3   O  1s       1.99731
     3   O  2s       1.68360
     3   O  2p       1.34913    1.34785    1.95889

     4   H  1s       0.77221

     5   H  1s       0.87145

     6   H  1s       0.86514

     7   H  1s       0.86514

     8   C  1s       1.99184
     8   C  2s       1.01161
     8   C  2p       1.14776    1.14877    1.10010

     9   C  1s       1.99184
     9   C  2s       1.01161
     9   C  2p       1.14776    1.14877    1.10010

    10   H  1s       0.86707

    11   H  1s       0.86707

    12   H  1s       0.86938

    13   H  1s       0.86938

    14   H  1s       0.87656

    15   H  1s       0.87656

 Summary of localized orbital composition:   [THRPRINT= 0.020]

   ORB  GRP  ORB.ENERGY      CENTERS/CHARGES
     1   1   -18.676719      O  3   2.000
     2   1    -9.976682      C  2   2.000
     3   1    -9.895750      C  9   2.000
     4   1    -9.895750      C  8   2.000
     5   1    -9.894096      C  1   2.000
     6   1    -0.657265      O  3   1.226   H  4   0.764
     7   1    -0.613244      O  3   1.159   C  2   0.825
     8   1    -0.525532      C  9   1.000   C  2   0.987
     9   1    -0.525532      C  8   1.000   C  2   0.987
    10   1    -0.525267      C  2   0.994   C  1   0.984   (other: 0.022)
    11   1    -0.511298      O  3   1.986
    12   1    -0.470662      C  9   1.121   H 15   0.870
    13   1    -0.470662      C  8   1.121   H 14   0.870
    14   1    -0.469376      C  8   1.128   H 12   0.862
    15   1    -0.469376      C  9   1.128   H 13   0.862
    16   1    -0.467268      C  1   1.126   H  5   0.865
    17   1    -0.466256      C  9   1.131   H 11   0.860
    18   1    -0.466256      C  8   1.131   H 10   0.860
    19   1    -0.461397      C  1   1.132   H  7   0.858
    20   1    -0.461397      C  1   1.132   H  6   0.858
    21   1    -0.150202      O  3   1.959   (other: 0.041)

 Localized orbitals saved to record      2100.2  (orbital set 2)


 **********************************************************************************************************************************
 DATASETS  * FILE   NREC   LENGTH (MB)   RECORD NAMES
              1      20       32.81       500      610      700      900      950      970     1000      129      960     1100   
                                          VAR    BASINP    GEOM    SYMINP    ZMAT    AOBASIS   BASIS     P2S    ABASIS      S 
                                         1400     1410     1200     1210     1080     1600     1650     1300     1700     1800   
                                           T        V       H0       H01     AOSYM     SMH    MOLCAS    ERIS     OPER     GRID   

              2       5        3.03       700     1000      520     1800     2100   
                                         GEOM     BASIS   MCVARS    GRID      RKS  

 PROGRAMS   *        TOTAL      IBBA        KS       INT
 CPU TIMES  *         5.33      0.04      4.68      0.45
 REAL TIME  *         6.50 SEC
 DISK USED  *        36.55 MB      
 **********************************************************************************************************************************
 Molecular orbitals read from record     2100.2  Type=RKS/LOCAL(IBO)  
 Occupation numbers read from record     2100.2  Type=RKS/LOCAL(IBO)  
 Orbital energies read from record       2100.2  Type=RKS/LOCAL(IBO)  
 Redundancy group numbers read from rec  2100.2  Type=RKS/LOCAL(IBO)  

 IBBA/STO-3G energy=      0.000000000000

        KS-SCF  
   -230.67881098
 **********************************************************************************************************************************
 Molpro calculation terminated
