
 Primary working directories    : /tmp/sb13343
 Secondary working directories  : /tmp/sb13343
 Wavefunction directory         : /panfs/panasas01/chem/sb13343/wfu/
 Main file repository           : /tmp/sb13343/

 SHA1      : b4a5b34a9e711420743f49e6833241d17c61fb3c
 NAME      : 2099.9.b4a5b34
 ARCHNAME  : linux/x86_64_openmp
 FC        : /cm/shared/languages/GCC-6.1/bin/gfortran
 BLASLIB   : -lblas
 id        : simonbennie

 Nodes     nprocs
 node32-018    1

 Using customized tuning parameters: mindgm=1; mindgv=20; mindgc=4; mindgr=1; noblas=0; minvec=7
 default implementation of scratch files=df  

 memory,500,m
 geomtyp=xyz
 nosym
 noorient
 geometry={
 H         -1.13405        1.76167        0.00000
 C         -1.32915        0.67205        0.00000
 C         -0.06360       -0.12883        0.00000
 C          0.67426       -0.31636        1.28970
 C          0.67426       -0.31636       -1.28970
 H         -1.94006        0.46750        0.88859
 H         -1.94006        0.46750       -0.88859
 H          1.28359        0.56876        1.55544
 H         -0.01165       -0.48291        2.13019
 H          1.36783       -1.16569        1.24157
 H          1.28359        0.56876       -1.55544
 H         -0.01165       -0.48291       -2.13019
 H          1.36783       -1.16569       -1.24157
 }
 basis={ default,sto-3g }
 {uks,M11-L,direct;wf,33,1,1}
 {ibba,bonds=1}

 Variables initialized (895), CPU time= 0.00 sec
 Commands  initialized (725), CPU time= 0.02 sec, 591 directives.
 Default parameters read. Elapsed time= 0.09 sec

 Checking input...
 Passed
1


                                         ***  PROGRAM SYSTEM MOLPRO  ***
                                       Copyright, TTI GmbH Stuttgart, 2015
                                    Version 2099.9 linked May 26 2017 16:03:21


 **********************************************************************************************************************************
 LABEL *                                                                                 
  64 bit serial version                                                                  DATE: 08-Jun-17          TIME: 20:30:49  
 **********************************************************************************************************************************

 SHA1:             b4a5b34a9e711420743f49e6833241d17c61fb3c
 **********************************************************************************************************************************
 SETTING GEOMTYP        =    XYZ

 Variable memory set to  500000000 words,  buffer space 

 ZSYMEL=NOSYM

 SETTING BASIS          =    STO-3G


 Recomputing integrals since basis changed


 Using spherical harmonics

 Library entry H      S STO-3G               selected for orbital group  1
 Library entry C      S STO-3G               selected for orbital group  2
 Library entry C      P STO-3G               selected for orbital group  2


 PROGRAM * SEWARD (Integral evaluation for generally contracted gaussian basis sets)     Author: Roland Lindh, 1990

 Geometry written to block  1 of record 700


 Point group  C1  



 ATOMIC COORDINATES

 NR  ATOM    CHARGE       X              Y              Z

   1  H       1.00   -2.143043912    3.329073822    0.000000000
   2  C       6.00   -2.511729478    1.269990442    0.000000000
   3  C       6.00   -0.120186582   -0.243453417    0.000000000
   4  C       6.00    1.274166737   -0.597833757    2.437179783
   5  C       6.00    1.274166737   -0.597833757   -2.437179783
   6  H       1.00   -3.666182065    0.883446963    1.679191737
   7  H       1.00   -3.666182065    0.883446963   -1.679191737
   8  H       1.00    2.425633556    1.074800631    2.939355603
   9  H       1.00   -0.022015309   -0.912567643    4.025475693
  10  H       1.00    2.584824085   -2.202834846    2.346227264
  11  H       1.00    2.425633556    1.074800631   -2.939355603
  12  H       1.00   -0.022015309   -0.912567643   -4.025475693
  13  H       1.00    2.584824085   -2.202834846   -2.346227264

 Bond lengths in Bohr (Angstrom)

 1-2  2.091830159  2-3  2.830192527  2-6  2.074092940  2-7  2.074092940  3-4  2.830132841
     ( 1.106948849)     ( 1.497673388)     ( 1.097562717)     ( 1.097562717)     ( 1.497641803)

  3- 5  2.830132841   4- 8  2.091832255   4- 9  2.074085151   4-10  2.074156104   5-11  2.091832255
       ( 1.497641803)       ( 1.106949959)       ( 1.097558596)       ( 1.097596142)       ( 1.106949959)

  5-12  2.074085151   5-13  2.074156104
       ( 1.097558596)       ( 1.097596142)

 Bond angles

  1-2-3  112.17549786   1-2-6  106.35284965   1-2-7  106.35284965   2-3-4  118.89987932

  2-3-5  118.89987932   3-2-6  111.75744418   3-2-7  111.75744418   3-4-8  112.19808176

  3- 4- 9  111.75014522   3- 4-10  111.74379558   3- 5-11  112.19808176   3- 5-12  111.75014522

  3- 5-13  111.74379558   4- 3- 5  118.89276928   6- 2- 7  108.11431090   8- 4- 9  106.34995457

  8- 4-10  106.34572146   9- 4-10  108.12296896  11- 5-12  106.34995457  11- 5-13  106.34572146

 12- 5-13  108.12296896

 NUCLEAR CHARGE:                   33
 NUMBER OF PRIMITIVE AOS:          87
 NUMBER OF SYMMETRY AOS:           87
 NUMBER OF CONTRACTIONS:           29   (  29A   )
 NUMBER OF CORE ORBITALS:           4   (   4A   )
 NUMBER OF VALENCE ORBITALS:       25   (  25A   )


 NUCLEAR REPULSION ENERGY  124.92676597


 Eigenvalues of metric

         1 0.210E+00 0.225E+00 0.225E+00 0.315E+00 0.353E+00 0.353E+00 0.362E+00 0.372E+00


 Contracted 2-electron integrals neglected if value below      1.0D-11
 AO integral compression algorithm  1   Integral accuracy      1.0D-11

     0.786 MB (compressed) written to integral file (100.0%)


 NUMBER OF SORTED TWO-ELECTRON INTEGRALS:      94830.     BUFFER LENGTH:  32768
 NUMBER OF SEGMENTS:   1  SEGMENT LENGTH:      94830      RECORD LENGTH: 524288

 Memory used in sort:       0.65 MW

 SORT1 READ      108770. AND WROTE       91348. INTEGRALS IN      1 RECORDS. CPU TIME:     0.00 SEC, REAL TIME:     0.00 SEC
 SORT2 READ       91348. AND WROTE       94830. INTEGRALS IN      3 RECORDS. CPU TIME:     0.02 SEC, REAL TIME:     0.02 SEC

 FILE SIZES:   FILE 1:    31.0 MBYTE,  FILE 4:     4.2 MBYTE,   TOTAL:     35.2 MBYTE

 OPERATOR DM      FOR CENTER  0  COORDINATES:    0.000000    0.000000    0.000000


 **********************************************************************************************************************************
 DATASETS  * FILE   NREC   LENGTH (MB)   RECORD NAMES
              1      19       30.62       500      610      700      900      950      970     1000      129      960     1100   
                                          VAR    BASINP    GEOM    SYMINP    ZMAT    AOBASIS   BASIS     P2S    ABASIS      S 
                                         1400     1410     1200     1210     1080     1600     1650     1300     1700   
                                           T        V       H0       H01     AOSYM     SMH    MOLCAS    ERIS     OPER   

 PROGRAMS   *        TOTAL       INT
 CPU TIMES  *         0.54      0.39
 REAL TIME  *         2.29 SEC
 DISK USED  *        35.68 MB      
 **********************************************************************************************************************************

 Density functional group M11-L=XC-M11-L
 Functional: XC-M11-L(via MFM 1.6)                                             Gradient terms: 1
 Use grid at  1800.2

 Functional: XC-M11-L                  Factor:  1.0000

 Generated new metagrid on record  1800.2 with target accuracy 1.0D-06 and 45406 points in CPU time    1.3
 Computed new grid on record 1800.1 in CPU time    1.4
   27459 words reserved for DFT integration

 PROGRAM * UKS-SCF (Unrestricted Kohn-Sham)     Authors: W. Meyer, H.-J. Werner, P.J. Knowles, 1993

 NUMBER OF ELECTRONS:      17+   16-    SPACE SYMMETRY=1    SPIN SYMMETRY: Doublet 
 CONVERGENCE THRESHOLDS:    1.00E-05 (Density)    1.00E-06 (Energy)
 MAX. NUMBER OF ITERATIONS:       60
 INTERPOLATION TYPE:            DIIS
 INTERPOLATION STEPS:              2 (START)      1 (STEP)
 LEVEL SHIFTS:                 -0.20 (ALPHA)  -0.20 (BETA) 



 Use fine grid record 1800.2 for energy threshold  1.0D-06
 Orbital guess generated from atomic densities. Full valence occupancy:   17

 Molecular orbital dump at record        2200.2

 Initial alpha occupation  17
 Initial beta  occupation  16

 ITERATION    DDIFF          GRAD             ENERGY        2-EL.EN.            DIPOLE MOMENTS         DIIS
    1      0.000D+00      0.000D+00      -155.11192453    411.938829    0.19287    0.38968   -0.00000    0
    2      0.560D-01      0.192D-01      -155.33940847    399.692103    0.02749    0.05745   -0.00000    1
    3      0.672D-02      0.310D-02      -155.34459679    400.967603    0.04148    0.08521   -0.00000    2
    4      0.142D-02      0.903D-03      -155.34549400    400.946046    0.03830    0.07876   -0.00000    3
    5      0.991D-03      0.431D-03      -155.34572922    400.944148    0.03439    0.07099   -0.00000    4
    6      0.161D-03      0.600D-04      -155.34573357    400.938828    0.03375    0.06974   -0.00000    5
    7      0.371D-04      0.143D-04      -155.34573379    400.938850    0.03361    0.06946   -0.00000    6
    8      0.985D-05      0.354D-05      -155.34573380    400.939144    0.03358    0.06941   -0.00000    6
    9      0.405D-05      0.111D-05      -155.34573381    400.938886    0.03357    0.06938   -0.00000    6

 Final alpha occupancy:  17
 Final beta  occupancy:  16

 !UKS STATE 1.1 Energy               -155.345733805026
 Nuclear energy                       124.92676597
 One-electron energy                 -456.18000558
 Two-electron energy                  200.46944290
 Density functional                   -24.56193710     XC-M11-L=-24.56193710
 Virial quotient                       -1.00959364
 !UKS STATE 1.1 Dipole moment           0.03356850     0.06938498    -0.00000000
 Dipole moment /Debye                   0.08531703     0.17634747    -0.00000000

 Orbital energies for positive spin:

         1.1          2.1          3.1          4.1          5.1          6.1          7.1          8.1          9.1         10.1
    -10.031403   -10.031167   -10.031146   -10.015779    -0.740518    -0.629770    -0.629696    -0.476638    -0.371844    -0.370966

        11.1         12.1         13.1         14.1         15.1         16.1         17.1         18.1         19.1
     -0.370887    -0.318517    -0.318372    -0.301645    -0.278098    -0.277971    -0.081059     0.356500     0.356618

 Orbital energies for negative spin:

         1.1          2.1          3.1          4.1          5.1          6.1          7.1          8.1          9.1         10.1
    -10.032656   -10.032443   -10.032418    -9.996592    -0.713010    -0.625262    -0.625102    -0.451043    -0.366370    -0.366302

        11.1         12.1         13.1         14.1         15.1         16.1         17.1         18.1         19.1
     -0.354199    -0.316135    -0.316021    -0.302930    -0.266444    -0.266179     0.057554     0.349788     0.349853

 HOMO     17.1    -0.081059 =      -2.2057eV
 LUMO    -17.1     0.057554 =       1.5661eV
 LUMO-HOMO         0.138613 =       3.7719eV

 EXPECTATION VALUE OF S**2:             0.75411961

 Occupation number threshold for canonical orbitals:  1.999000 (occupied),  0.001000 (virtual)

 Number of pseudo-canonical orbitals per symmetry:   16
 Number of active natural orbitals per symmetry:      1

 Natural orbitals saved to record    2200.2 (Orbital set 3)

 Orbital spaces for UNO-CAS (Min. occupation: 0.020  Max. occupation: 1.980):

 Closed:       16
 Active:        1


 **********************************************************************************************************************************
 DATASETS  * FILE   NREC   LENGTH (MB)   RECORD NAMES
              1      20       32.07       500      610      700      900      950      970     1000      129      960     1100   
                                          VAR    BASINP    GEOM    SYMINP    ZMAT    AOBASIS   BASIS     P2S    ABASIS      S 
                                         1400     1410     1200     1210     1080     1600     1650     1300     1700     1800   
                                           T        V       H0       H01     AOSYM     SMH    MOLCAS    ERIS     OPER     GRID   

              2       5        3.00       700     1000      520     1800     2200   
                                         GEOM     BASIS   MCVARS    GRID      UKS  

 PROGRAMS   *        TOTAL       UKS       INT
 CPU TIMES  *         8.34      7.80      0.39
 REAL TIME  *        10.48 SEC
 DISK USED  *        35.68 MB      
 **********************************************************************************************************************************


 PROGRAM * Intrinsic Basis Bonding Analysis (IBBA)          Author: G. Knizia

 Molecular orbitals read from record     2200.2  Type=UKS/ALPHA (state 1.1)
 Fock matrix read from record            2200.2  Type=UKS/TOTAL (state 1.1)
 Orbital energies read from record       2200.2  Type=UKS/ALPHA (state 1.1)
 Density matrix read from record         2200.2  Type=UKS/CHARGE (state 1.1)

 Number of core orbitals:           4 (   4 )
 Number of closed-shell orbitals:  12 (  12 )
 Number of active  orbitals:        1 (   1 )

 Basis set MINAO-AUTO-PP generated.      Number of basis functions:   29 

 Polarized AO type:                A = (O Ot + (1-O)(1-Ot)) P12
 Orthogonalization method:         Symmetric (Loewdin)
 Localization functional:          L = sum[A,i] <i|n_A|i>^4 -> max

 Localization group 1:  16 orbitals, occupancy  2.000
 Iterative localization: IB/PM,    8 iter; Final gradient 0.11E-08

 Bond order analysis:       [THRPRINT= 0.020]

   CEN ATOM   CEN ATOM     WIBERG.BO      RENORM.BO
     1   H  -   2   C       0.892060       0.996252
     1   H  -   3   C       0.050189       0.181055

     2   C  -   3   C       1.117659       1.310276
     2   C  -   7   H       0.955867       0.988796
     2   C  -   6   H       0.955867       0.988796
     2   C  -   1   H       0.892060       0.996252

     3   C  -   2   C       1.117659       1.310276
     3   C  -   5   C       1.117580       1.310101
     3   C  -   4   C       1.117580       1.310101
     3   C  -   1   H       0.050189       0.181055
     3   C  -  11   H       0.050152       0.180907
     3   C  -   8   H       0.050152       0.180907

     4   C  -   3   C       1.117580       1.310101
     4   C  -   9   H       0.955963       0.988797
     4   C  -  10   H       0.955886       0.988805
     4   C  -   8   H       0.892135       0.996250

     5   C  -   3   C       1.117580       1.310101
     5   C  -  12   H       0.955963       0.988797
     5   C  -  13   H       0.955886       0.988805
     5   C  -  11   H       0.892135       0.996250

     6   H  -   2   C       0.955867       0.988796

     7   H  -   2   C       0.955867       0.988796

     8   H  -   4   C       0.892135       0.996250
     8   H  -   3   C       0.050152       0.180907

     9   H  -   4   C       0.955963       0.988797

    10   H  -   4   C       0.955886       0.988805

    11   H  -   5   C       0.892135       0.996250
    11   H  -   3   C       0.050152       0.180907

    12   H  -   5   C       0.955963       0.988797

    13   H  -   5   C       0.955886       0.988805


 Valency analysis:

   CEN ATOM   TOT.VALENCE
     1   H       0.966623
     2   C       3.957684
     3   C       3.559297
     4   C       3.957774
     5   C       3.957774
     6   H       0.982941
     7   H       0.982941
     8   H       0.966642
     9   H       0.982991
    10   H       0.982973
    11   H       0.966642
    12   H       0.982991
    13   H       0.982973
 Localization group 2:   1 orbitals, occupancy  1.000
 Iterative localization: IB/PM,    1 iter; Final gradient 0.00E+00

 Bond order analysis:       [THRPRINT= 0.020]

   CEN ATOM   CEN ATOM     WIBERG.BO      RENORM.BO
     1   H  -   3   C       0.079188       0.500000


     3   C  -  11   H       0.079212       0.500000
     3   C  -   8   H       0.079212       0.500000
     3   C  -   1   H       0.079188       0.500000





     8   H  -   3   C       0.079212       0.500000



    11   H  -   3   C       0.079212       0.500000




 Valency analysis:

   CEN ATOM   TOT.VALENCE
     1   H       0.099932
     2   C       0.019618
     3   C       0.374377
     4   C       0.019496
     5   C       0.019496
     6   H       0.020294
     7   H       0.020294
     8   H       0.099961
     9   H       0.020256
    10   H       0.020322
    11   H       0.099961
    12   H       0.020256
    13   H       0.020322

 Total charge composition:

   CEN ATOM         s          p       ELECTRONS ->P.CHARGE
     1   H       0.87006                 0.87006    0.12994
     2   C       3.00842    3.31158      6.32000   -0.32000
     3   C       3.03920    3.11264      6.15184   -0.15184
     4   C       3.00845    3.31125      6.31970   -0.31970
     5   C       3.00845    3.31125      6.31970   -0.31970
     6   H       0.87964                 0.87964    0.12036
     7   H       0.87964                 0.87964    0.12036
     8   H       0.87012                 0.87012    0.12988
     9   H       0.87981                 0.87981    0.12019
    10   H       0.87978                 0.87978    0.12022
    11   H       0.87012                 0.87012    0.12988
    12   H       0.87981                 0.87981    0.12019
    13   H       0.87978                 0.87978    0.12022

 Total charge composition, AO contributions:

   CEN ATOM SHL      SPHERICAL COMPONENTS
     1   H  1s       0.87006

     2   C  1s       1.99018
     2   C  2s       1.01824
     2   C  2p       1.06979    1.09868    1.14311

     3   C  1s       1.99185
     3   C  2s       1.04735
     3   C  2p       1.02957    1.06475    1.01832

     4   C  1s       1.99018
     4   C  2s       1.01827
     4   C  2p       1.11365    1.13047    1.06713

     5   C  1s       1.99018
     5   C  2s       1.01827
     5   C  2p       1.11365    1.13047    1.06713

     6   H  1s       0.87964

     7   H  1s       0.87964

     8   H  1s       0.87012

     9   H  1s       0.87981

    10   H  1s       0.87978

    11   H  1s       0.87012

    12   H  1s       0.87981

    13   H  1s       0.87978

 Active orbital charges:

   CEN ATOM         s          p       ELECTRONS ->SPIN.DEN
     1   H       0.05275                 0.05275    0.05275
     2   C       0.00021    0.00970      0.00991    0.00991
     3   C       0.01133    0.73929      0.75062    0.75062
     4   C       0.00021    0.00964      0.00984    0.00984
     5   C       0.00021    0.00964      0.00984    0.00984
     6   H       0.01025                 0.01025    0.01025
     7   H       0.01025                 0.01025    0.01025
     8   H       0.05276                 0.05276    0.05276
     9   H       0.01023                 0.01023    0.01023
    10   H       0.01027                 0.01027    0.01027
    11   H       0.05276                 0.05276    0.05276
    12   H       0.01023                 0.01023    0.01023
    13   H       0.01027                 0.01027    0.01027

 Active orbital charges, AO contributions:

   CEN ATOM SHL      SPHERICAL COMPONENTS
     1   H  1s       0.05275

     2   C  1s       0.00000
     2   C  2s       0.00021
     2   C  2p       0.00006    0.00964    0.00000

     3   C  1s       0.00004
     3   C  2s       0.01130
     3   C  2p       0.14500    0.59429    0.00000

     4   C  1s       0.00000
     4   C  2s       0.00021
     4   C  2p       0.00321    0.00544    0.00099

     5   C  1s       0.00000
     5   C  2s       0.00021
     5   C  2p       0.00321    0.00544    0.00099

     6   H  1s       0.01025

     7   H  1s       0.01025

     8   H  1s       0.05276

     9   H  1s       0.01023

    10   H  1s       0.01027

    11   H  1s       0.05276

    12   H  1s       0.01023

    13   H  1s       0.01027

 Summary of localized orbital composition:   [THRPRINT= 0.020]

   ORB  GRP  ORB.ENERGY      CENTERS/CHARGES
     1   1    -9.915681      C  2   2.000
     2   1    -9.915440      C  4   2.000
     3   1    -9.915440      C  5   2.000
     4   1    -9.905260      C  3   2.000
     5   1    -0.523157      C  3   1.013   C  2   0.976
     6   1    -0.522840      C  3   1.013   C  4   0.976
     7   1    -0.522840      C  3   1.013   C  5   0.976
     8   1    -0.436842      C  2   1.099   H  1   0.811   C  3   0.084
     9   1    -0.436704      C  4   1.099   H  8   0.811   C  3   0.084
    10   1    -0.436704      C  5   1.099   H 11   0.811   C  3   0.084
    11   1    -0.432073      C  2   1.113   H  6   0.864   (other: 0.023)
    12   1    -0.432073      C  2   1.113   H  7   0.864   (other: 0.023)
    13   1    -0.431983      C  5   1.113   H 12   0.864   (other: 0.023)
    14   1    -0.431983      C  4   1.113   H  9   0.864   (other: 0.023)
    15   1    -0.431873      C  5   1.113   H 13   0.864   (other: 0.023)
    16   1    -0.431873      C  4   1.113   H 10   0.864   (other: 0.023)
    17   2    -0.012799      C  3   0.751   H 11   0.053   H  8   0.053   H  1   0.053   (other: 0.091)

 Localized orbitals saved to record      2200.2  (orbital set 4)


 **********************************************************************************************************************************
 DATASETS  * FILE   NREC   LENGTH (MB)   RECORD NAMES
              1      20       32.07       500      610      700      900      950      970     1000      129      960     1100   
                                          VAR    BASINP    GEOM    SYMINP    ZMAT    AOBASIS   BASIS     P2S    ABASIS      S 
                                         1400     1410     1200     1210     1080     1600     1650     1300     1700     1800   
                                           T        V       H0       H01     AOSYM     SMH    MOLCAS    ERIS     OPER     GRID   

              2       5        3.01       700     1000      520     1800     2200   
                                         GEOM     BASIS   MCVARS    GRID      UKS  

 PROGRAMS   *        TOTAL      IBBA       UKS       INT
 CPU TIMES  *         8.37      0.02      7.80      0.39
 REAL TIME  *        10.61 SEC
 DISK USED  *        35.68 MB      
 **********************************************************************************************************************************
 Molecular orbitals read from record     2200.2  Type=UKS/LOCAL(IBO)  
 Occupation numbers read from record     2200.2  Type=UKS/LOCAL(IBO)  
 Orbital energies read from record       2200.2  Type=UKS/LOCAL(IBO)  
 Redundancy group numbers read from rec  2200.2  Type=UKS/BETA (state 1.1)

 IBBA/STO-3G energy=      0.000000000000

        UKS-SCF 
   -155.34573381
 **********************************************************************************************************************************
 Molpro calculation terminated
