
 Primary working directories    : /local
 Secondary working directories  : /local
 Wavefunction directory         : /local/
 Main file repository           : /local/

 SHA1      : b4a5b34a9e711420743f49e6833241d17c61fb3c
 NAME      : 2099.9.b4a5b34
 ARCHNAME  : linux/x86_64_openmp
 FC        : /cm/shared/languages/GCC-6.1/bin/gfortran
 BLASLIB   : -lblas
 id        : simonbennie

 Nodes     nprocs
 node33-013    1

 Using customized tuning parameters: mindgm=1; mindgv=20; mindgc=4; mindgr=1; noblas=0; minvec=7
 default implementation of scratch files=df  

 memory,500,m
 geomtyp=xyz
 nosym
 noorient
 geometry={
 C         -1.53233        0.02247        0.00000
 C         -0.00192        0.01421        0.00000
 O          0.37239        1.40356        0.00000
 H          1.34248        1.44036        0.00000
 H         -1.92991       -0.99819        0.00000
 H         -1.90797        0.54382       -0.88653
 H         -1.90797        0.54382        0.88653
 C          0.54303       -0.66466       -1.26580
 C          0.54303       -0.66466        1.26580
 H          0.17836       -0.14752       -2.15943
 H          0.17836       -0.14752        2.15943
 H          0.23752       -1.71600       -1.32280
 H          0.23752       -1.71600        1.32280
 H          1.64084       -0.63767       -1.28032
 H          1.64084       -0.63767        1.28032
 }
 basis={ default,tzvp }
 {ks,PBE0MOL,direct;wf,42,1,0}
 {ibba,bonds=1}

 Variables initialized (895), CPU time= 0.00 sec
 Commands  initialized (725), CPU time= 0.02 sec, 591 directives.
 Default parameters read. Elapsed time= 0.08 sec

 Checking input...
 Passed
1


                                         ***  PROGRAM SYSTEM MOLPRO  ***
                                       Copyright, TTI GmbH Stuttgart, 2015
                                    Version 2099.9 linked May 26 2017 16:03:21


 **********************************************************************************************************************************
 LABEL *                                                                                 
  64 bit serial version                                                                  DATE: 12-Jun-17          TIME: 19:36:28  
 **********************************************************************************************************************************

 SHA1:             b4a5b34a9e711420743f49e6833241d17c61fb3c
 **********************************************************************************************************************************
 SETTING GEOMTYP        =    XYZ

 Variable memory set to  500000000 words,  buffer space 

 ZSYMEL=NOSYM

 SETTING BASIS          =    TZVP


 Recomputing integrals since basis changed


 Using spherical harmonics

 Library entry C      S def2-TZVP            selected for orbital group  1
 Library entry C      P def2-TZVP            selected for orbital group  1
 Library entry C      D def2-TZVP            selected for orbital group  1
 Library entry C      F def2-TZVP            selected for orbital group  1
 Library entry O      S def2-TZVP            selected for orbital group  2
 Library entry O      P def2-TZVP            selected for orbital group  2
 Library entry O      D def2-TZVP            selected for orbital group  2
 Library entry O      F def2-TZVP            selected for orbital group  2
 Library entry H      S def2-TZVP            selected for orbital group  3
 Library entry H      P def2-TZVP            selected for orbital group  3


 PROGRAM * SEWARD (Integral evaluation for generally contracted gaussian basis sets)     Author: Roland Lindh, 1990

 Geometry written to block  1 of record 700


 Point group  C1  



 ATOMIC COORDINATES

 NR  ATOM    CHARGE       X              Y              Z

   1  C       6.00   -2.895684032    0.042462146    0.000000000
   2  C       6.00   -0.003628274    0.026853008    0.000000000
   3  O       8.00    0.703715112    2.652343999    0.000000000
   4  H       1.00    2.536919528    2.721885921    0.000000000
   5  H       1.00   -3.647001345   -1.886305720    0.000000000
   6  H       1.00   -3.605540754    1.027670861   -1.675298901
   7  H       1.00   -3.605540754    1.027670861    1.675298901
   8  C       6.00    1.026177977   -1.256025366   -2.392015328
   9  C       6.00    1.026177977   -1.256025366    2.392015328
  10  H       1.00    0.337051552   -0.278772398   -4.080731285
  11  H       1.00    0.337051552   -0.278772398    4.080731285
  12  H       1.00    0.448847749   -3.242770030   -2.499729718
  13  H       1.00    0.448847749   -3.242770030    2.499729718
  14  H       1.00    3.100738214   -1.205021658   -2.419454152
  15  H       1.00    3.100738214   -1.205021658    2.419454152

 Bond lengths in Bohr (Angstrom)

 1-2  2.892097881  1-5  2.069933136  1-6  2.069096224  1-7  2.069096224  2-3  2.719106031
     ( 1.530432290)     ( 1.095361444)     ( 1.094918569)     ( 1.094918569)     ( 1.438888946)

  2- 8  2.903104402   2- 9  2.903104402   3- 4  1.834522965   8-10  2.069222119   8-12  2.071730422
       ( 1.536256691)       ( 1.536256691)       ( 0.970787746)       ( 1.094985190)       ( 1.096312526)

  8-14  2.075368508   9-11  2.069222119   9-13  2.071730422   9-15  2.075368508
       ( 1.098237719)       ( 1.094985190)       ( 1.096312526)       ( 1.098237719)

 Bond angles

  1-2-3  104.76902697   1-2-8  110.92255387   1-2-9  110.92255387   2-1-5  110.97328220

  2- 1- 6  110.22090701   2- 1- 7  110.22090701   2- 3- 4  107.25071562   2- 8-10  110.21836376

  2- 8-12  111.57747468   2- 8-14  110.77023896   2- 9-11  110.21836376   2- 9-13  111.57747468

  2- 9-15  110.77023896   3- 2- 8  109.53648747   3- 2- 9  109.53648747   5- 1- 6  108.61190457

  5- 1- 7  108.61190457   6- 1- 7  108.12870271   8- 2- 9  110.96453384  10- 8-12  108.52192632

 10- 8-14  108.08997829  11- 9-13  108.52192632  11- 9-15  108.08997829  12- 8-14  107.54424578

 13- 9-15  107.54424578

 NUCLEAR CHARGE:                   42
 NUMBER OF PRIMITIVE AOS:         335
 NUMBER OF SYMMETRY AOS:          310
 NUMBER OF CONTRACTIONS:          215   ( 215A   )
 NUMBER OF CORE ORBITALS:           5   (   5A   )
 NUMBER OF VALENCE ORBITALS:       30   (  30A   )


 NUCLEAR REPULSION ENERGY  198.77359127


 Eigenvalues of metric

         1 0.262E-03 0.510E-03 0.539E-03 0.594E-03 0.697E-03 0.755E-03 0.210E-02 0.239E-02


 Contracted 2-electron integrals neglected if value below      1.0D-11
 AO integral compression algorithm  1   Integral accuracy      1.0D-11

     977.797 MB (compressed) written to integral file ( 41.7%)


 NUMBER OF SORTED TWO-ELECTRON INTEGRALS:  269595810.     BUFFER LENGTH:  32768
 NUMBER OF SEGMENTS:  17  SEGMENT LENGTH:   15999762      RECORD LENGTH: 524288

 Memory used in sort:      16.56 MW

 SORT1 READ   292827432. AND WROTE   238500613. INTEGRALS IN    690 RECORDS. CPU TIME:     3.37 SEC, REAL TIME:     6.59 SEC
 SORT2 READ   238500613. AND WROTE   269595810. INTEGRALS IN   3730 RECORDS. CPU TIME:     6.51 SEC, REAL TIME:     7.97 SEC

 FILE SIZES:   FILE 1:  1009.7 MBYTE,  FILE 4:  2894.1 MBYTE,   TOTAL:   3903.8 MBYTE

 OPERATOR DM      FOR CENTER  0  COORDINATES:    0.000000    0.000000    0.000000


 **********************************************************************************************************************************
 DATASETS  * FILE   NREC   LENGTH (MB)   RECORD NAMES
              1      19      926.27       500      610      700      900      950      970     1000      129      960     1100   
                                          VAR    BASINP    GEOM    SYMINP    ZMAT    AOBASIS   BASIS     P2S    ABASIS      S 
                                         1400     1410     1200     1210     1080     1600     1650     1300     1700   
                                           T        V       H0       H01     AOSYM     SMH    MOLCAS    ERIS     OPER   

 PROGRAMS   *        TOTAL       INT
 CPU TIMES  *        26.30     26.16
 REAL TIME  *        64.73 SEC
 DISK USED  *         3.90 GB      
 **********************************************************************************************************************************

 Density functional group PBE0MOL=PBEX+PW91C
 Functional: PBEX(Automatically generated (new) PBEX)                          Gradient terms: 1
 Functional: PW91C(Automatically generated (new) PW91C)                        Gradient terms: 1
 Use grid at  1800.2


 Exact exchange will be calculated, factor:  0.2500

 Functional: PBEX                      Factor:  0.7500
 Functional: PW91C                     Factor:  1.0000

 Generated new metagrid on record  1800.2 with target accuracy 1.0D-06 and 54596 points in CPU time    1.6
 Computed new grid on record 1800.1 in CPU time    1.7
  175219 words reserved for DFT integration

 PROGRAM * RKS-SCF (Restricted closed shell Kohn-Sham)     Authors: W. Meyer, H.-J. Werner, P.J. Knowles, 1993

 NUMBER OF ELECTRONS:      21+   21-    SPACE SYMMETRY=1    SPIN SYMMETRY: Singlet 
 CONVERGENCE THRESHOLDS:    1.00E-05 (Density)    1.00E-06 (Energy)
 MAX. NUMBER OF ITERATIONS:       60
 INTERPOLATION TYPE:            DIIS
 INTERPOLATION STEPS:              2 (START)      1 (STEP)
 LEVEL SHIFTS:                  0.00 (CLOSED)  0.00 (OPEN) 



 Use fine grid record 1800.2 for energy threshold  1.0D-06
 Orbital guess generated from atomic densities. Full valence occupancy:   21

 Molecular orbital dump at record        2100.2

 Initial occupancy:  21

 ITERATION    DDIFF          GRAD             ENERGY        2-EL.EN.            DIPOLE MOMENTS         DIIS   ORB.
    1      0.000D+00      0.000D+00      -233.39117845    619.391720    0.69886   -0.81680    0.00000    0    start
    2      0.000D+00      0.678D-02      -233.31698346    589.121592   -0.11514   -0.06130    0.00000    1    diag
    3      0.873D-02      0.823D-02      -233.57266025    606.417068    0.38020   -0.58702    0.00000    2    diag
    4      0.567D-02      0.890D-03      -233.57486353    605.828566    0.35295   -0.46790    0.00000    3    diag
    5      0.481D-03      0.280D-03      -233.57509371    605.780487    0.35307   -0.51409    0.00000    4    diag
    6      0.149D-03      0.719D-04      -233.57511047    605.861374    0.35472   -0.50603    0.00000    5    diag
    7      0.384D-04      0.237D-04      -233.57511231    605.849018    0.35489   -0.50507    0.00000    6    diag
    8      0.893D-05      0.229D-05      -233.57511233    605.852637    0.35479   -0.50604    0.00000    7    diag
    9      0.228D-05      0.670D-06      -233.57511233    605.851954    0.35488   -0.50557    0.00000    0    orth

 Final occupancy:  21

 !RKS STATE 1.1 Energy               -233.575112330530
 Nuclear energy                       198.77359127
 One-electron energy                 -709.53446039
 Two-electron energy                  302.92597712
 SCF exchange energy                  -32.51607537     Factor= 0.2500
 Density functional                   -25.74022034     PBEX=-32.37637401 PW91C= -1.45793983
 Virial quotient                       -1.00567039
 !RKS STATE 1.1 Dipole moment           0.35488065    -0.50556515     0.00000000
 Dipole moment /Debye                   0.90195756    -1.28493427     0.00000000

 Orbital energies:

         1.1          2.1          3.1          4.1          5.1          6.1          7.1          8.1          9.1         10.1
    -19.202860   -10.286722   -10.216623   -10.216616   -10.211223    -1.043749    -0.810469    -0.712108    -0.710989    -0.585394

        11.1         12.1         13.1         14.1         15.1         16.1         17.1         18.1         19.1         20.1
     -0.504520    -0.466582    -0.463628    -0.425716    -0.410666    -0.391770    -0.378416    -0.367877    -0.360552    -0.332135

        21.1         22.1         23.1
     -0.285220     0.028773     0.076176

 HOMO     21.1    -0.285220 =      -7.7612eV
 LUMO     22.1     0.028773 =       0.7829eV
 LUMO-HOMO         0.313992 =       8.5442eV


 **********************************************************************************************************************************
 DATASETS  * FILE   NREC   LENGTH (MB)   RECORD NAMES
              1      20      928.02       500      610      700      900      950      970     1000      129      960     1100   
                                          VAR    BASINP    GEOM    SYMINP    ZMAT    AOBASIS   BASIS     P2S    ABASIS      S 
                                         1400     1410     1200     1210     1080     1600     1650     1300     1700     1800   
                                           T        V       H0       H01     AOSYM     SMH    MOLCAS    ERIS     OPER     GRID   

              2       5        3.96       700     1000      520     1800     2100   
                                         GEOM     BASIS   MCVARS    GRID      RKS  

 PROGRAMS   *        TOTAL        KS       INT
 CPU TIMES  *        84.20     57.90     26.16
 REAL TIME  *       124.21 SEC
 DISK USED  *         3.90 GB      
 **********************************************************************************************************************************


 PROGRAM * Intrinsic Basis Bonding Analysis (IBBA)          Author: G. Knizia

 Molecular orbitals read from record     2100.2  Type=RKS/CANONICAL (state 1.1)
 Fock matrix read from record            2100.2  Type=RKS/TOTAL (state 1.1)
 Orbital energies read from record       2100.2  Type=RKS/CANONICAL (state 1.1)
 Density matrix read from record         2100.2  Type=RKS/CHARGE (state 1.1)

 Number of core orbitals:           5 (   5 )
 Number of closed-shell orbitals:  16 (  16 )

 Basis set MINAO-AUTO-PP generated.      Number of basis functions:   35 

 Polarized AO type:                A = (O Ot + (1-O)(1-Ot)) P12
 Orthogonalization method:         Symmetric (Loewdin)
 Localization functional:          L = sum[A,i] <i|n_A|i>^4 -> max

 Localization group 1:  21 orbitals, occupancy  2.000
 Iterative localization: IB/PM,    7 iter; Final gradient 0.28E-08

 Bond order analysis:       [THRPRINT= 0.020]

   CEN ATOM   CEN ATOM     WIBERG.BO      RENORM.BO
     1   C  -   2   C       0.996529       0.993271
     1   C  -   5   H       0.962328       0.987285
     1   C  -   6   H       0.957423       0.981769
     1   C  -   7   H       0.957423       0.981769

     2   C  -   1   C       0.996529       0.993271
     2   C  -   9   C       0.995237       0.975829
     2   C  -   8   C       0.995237       0.975829
     2   C  -   3   O       0.934334       0.949887

     3   O  -   2   C       0.934334       0.949887
     3   O  -   4   H       0.861145       0.976881
     3   O  -   9   C       0.027233       0.013926
     3   O  -   8   C       0.027233       0.013926

     4   H  -   3   O       0.861145       0.976881

     5   H  -   1   C       0.962328       0.987285

     6   H  -   1   C       0.957423       0.981769

     7   H  -   1   C       0.957423       0.981769

     8   C  -   2   C       0.995237       0.975829
     8   C  -  14   H       0.961847       0.982402
     8   C  -  12   H       0.958198       0.981891
     8   C  -  10   H       0.957949       0.981668
     8   C  -   3   O       0.027233       0.013926

     9   C  -   2   C       0.995237       0.975829
     9   C  -  15   H       0.961847       0.982402
     9   C  -  13   H       0.958198       0.981891
     9   C  -  11   H       0.957949       0.981668
     9   C  -   3   O       0.027233       0.013926

    10   H  -   8   C       0.957949       0.981668

    11   H  -   9   C       0.957949       0.981668

    12   H  -   8   C       0.958198       0.981891

    13   H  -   9   C       0.958198       0.981891

    14   H  -   8   C       0.961847       0.982402

    15   H  -   9   C       0.961847       0.982402


 Valency analysis:

   CEN ATOM   TOT.VALENCE
     1   C       3.933140
     2   C       3.931432
     3   O       1.916006
     4   H       0.880367
     5   H       0.980783
     6   H       0.978025
     7   H       0.978025
     8   C       3.935898
     9   C       3.935898
    10   H       0.978046
    11   H       0.978046
    12   H       0.979933
    13   H       0.979933
    14   H       0.982396
    15   H       0.982396

 Total charge composition:

   CEN ATOM         s          p       ELECTRONS ->P.CHARGE
     1   C       3.04509    3.38272      6.42781   -0.42781
     2   C       2.93961    2.80415      5.74377    0.25623
     3   O       3.64884    4.92432      8.57316   -0.57316
     4   H       0.65412                 0.65412    0.34588
     5   H       0.86138                 0.86138    0.13862
     6   H       0.85176                 0.85176    0.14824
     7   H       0.85176                 0.85176    0.14824
     8   C       3.05115    3.38948      6.44063   -0.44063
     9   C       3.05115    3.38948      6.44063   -0.44063
    10   H       0.85183                 0.85183    0.14817
    11   H       0.85183                 0.85183    0.14817
    12   H       0.85834                 0.85834    0.14166
    13   H       0.85834                 0.85834    0.14166
    14   H       0.86732                 0.86732    0.13268
    15   H       0.86732                 0.86732    0.13268

 Total charge composition, AO contributions:

   CEN ATOM SHL      SPHERICAL COMPONENTS
     1   C  1s       1.99107
     1   C  2s       1.05402
     1   C  2p       1.04056    1.16489    1.17727

     2   C  1s       1.99271
     2   C  2s       0.94690
     2   C  2p       1.00702    0.78788    1.00925

     3   O  1s       1.99712
     3   O  2s       1.65171
     3   O  2p       1.47596    1.49129    1.95707

     4   H  1s       0.65412

     5   H  1s       0.86138

     6   H  1s       0.85176

     7   H  1s       0.85176

     8   C  1s       1.99117
     8   C  2s       1.05998
     8   C  2p       1.14653    1.14651    1.09644

     9   C  1s       1.99117
     9   C  2s       1.05998
     9   C  2p       1.14653    1.14651    1.09644

    10   H  1s       0.85183

    11   H  1s       0.85183

    12   H  1s       0.85834

    13   H  1s       0.85834

    14   H  1s       0.86732

    15   H  1s       0.86732

 Summary of localized orbital composition:   [THRPRINT= 0.020]

   ORB  GRP  ORB.ENERGY      CENTERS/CHARGES
     1   1   -19.040792      O  3   2.000
     2   1   -10.194158      C  2   2.000
     3   1   -10.100443      C  9   2.000
     4   1   -10.100443      C  8   2.000
     5   1   -10.094228      C  1   2.000
     6   1    -0.780746      O  3   1.348   H  4   0.643
     7   1    -0.736801      O  3   1.283   C  2   0.699
     8   1    -0.598110      O  3   1.982
     9   1    -0.591054      C  8   1.008   C  2   0.977
    10   1    -0.591054      C  9   1.008   C  2   0.977
    11   1    -0.590365      C  1   0.991   C  2   0.986   (other: 0.023)
    12   1    -0.520768      C  8   1.137   H 12   0.849
    13   1    -0.520768      C  9   1.137   H 13   0.849
    14   1    -0.519101      C  8   1.128   H 14   0.860
    15   1    -0.519101      C  9   1.128   H 15   0.860
    16   1    -0.516385      C  1   1.132   H  5   0.854
    17   1    -0.514850      C  9   1.146   H 11   0.844
    18   1    -0.514850      C  8   1.146   H 10   0.844
    19   1    -0.510108      C  1   1.145   H  6   0.844
    20   1    -0.510108      C  1   1.145   H  7   0.844
    21   1    -0.319599      O  3   1.957   (other: 0.043)

 Localized orbitals saved to record      2100.2  (orbital set 2)


 **********************************************************************************************************************************
 DATASETS  * FILE   NREC   LENGTH (MB)   RECORD NAMES
              1      20      928.02       500      610      700      900      950      970     1000      129      960     1100   
                                          VAR    BASINP    GEOM    SYMINP    ZMAT    AOBASIS   BASIS     P2S    ABASIS      S 
                                         1400     1410     1200     1210     1080     1600     1650     1300     1700     1800   
                                           T        V       H0       H01     AOSYM     SMH    MOLCAS    ERIS     OPER     GRID   

              2       5        4.33       700     1000      520     1800     2100   
                                         GEOM     BASIS   MCVARS    GRID      RKS  

 PROGRAMS   *        TOTAL      IBBA        KS       INT
 CPU TIMES  *        84.27      0.07     57.90     26.16
 REAL TIME  *       124.40 SEC
 DISK USED  *         3.90 GB      
 **********************************************************************************************************************************
 Molecular orbitals read from record     2100.2  Type=RKS/LOCAL(IBO)  
 Occupation numbers read from record     2100.2  Type=RKS/LOCAL(IBO)  
 Orbital energies read from record       2100.2  Type=RKS/LOCAL(IBO)  
 Redundancy group numbers read from rec  2100.2  Type=RKS/LOCAL(IBO)  

 IBBA/TZVP energy=      0.000000000000

        KS-SCF  
   -233.57511233
 **********************************************************************************************************************************
 Molpro calculation terminated
