
 Primary working directories    : /local
 Secondary working directories  : /local
 Wavefunction directory         : /local/
 Main file repository           : /local/

 SHA1      : b4a5b34a9e711420743f49e6833241d17c61fb3c
 NAME      : 2099.9.b4a5b34
 ARCHNAME  : linux/x86_64_openmp
 FC        : /cm/shared/languages/GCC-6.1/bin/gfortran
 BLASLIB   : -lblas
 id        : simonbennie

 Nodes     nprocs
 node46-012    1

 Using customized tuning parameters: mindgm=1; mindgv=20; mindgc=4; mindgr=1; noblas=0; minvec=7
 default implementation of scratch files=df  

 memory,500,m
 geomtyp=xyz
 nosym
 noorient
 geometry={
 C         -1.53233        0.02247        0.00000
 C         -0.00192        0.01421        0.00000
 O          0.37239        1.40356        0.00000
 H          1.34248        1.44036        0.00000
 H         -1.92991       -0.99819        0.00000
 H         -1.90797        0.54382       -0.88653
 H         -1.90797        0.54382        0.88653
 C          0.54303       -0.66466       -1.26580
 C          0.54303       -0.66466        1.26580
 H          0.17836       -0.14752       -2.15943
 H          0.17836       -0.14752        2.15943
 H          0.23752       -1.71600       -1.32280
 H          0.23752       -1.71600        1.32280
 H          1.64084       -0.63767       -1.28032
 H          1.64084       -0.63767        1.28032
 }
 basis={ default,qzvp }
 {uks,B-P,direct;wf,42,1,0}
 {ibba,bonds=1}

 Variables initialized (895), CPU time= 0.01 sec
 Commands  initialized (725), CPU time= 0.01 sec, 591 directives.
 Default parameters read. Elapsed time= 0.16 sec

 Checking input...
 Passed
1


                                         ***  PROGRAM SYSTEM MOLPRO  ***
                                       Copyright, TTI GmbH Stuttgart, 2015
                                    Version 2099.9 linked May 26 2017 16:03:21


 **********************************************************************************************************************************
 LABEL *                                                                                 
  64 bit serial version                                                                  DATE: 12-Jun-17          TIME: 18:47:44  
 **********************************************************************************************************************************

 SHA1:             b4a5b34a9e711420743f49e6833241d17c61fb3c
 **********************************************************************************************************************************
 SETTING GEOMTYP        =    XYZ

 Variable memory set to  500000000 words,  buffer space 

 ZSYMEL=NOSYM

 SETTING BASIS          =    QZVP


 Recomputing integrals since basis changed


 Using spherical harmonics

 Library entry C      S def2-QZVP            selected for orbital group  1
 Library entry C      P def2-QZVP            selected for orbital group  1
 Library entry C      D def2-QZVP            selected for orbital group  1
 Library entry C      F def2-QZVP            selected for orbital group  1
 Library entry C      G def2-QZVP            selected for orbital group  1
 Library entry O      S def2-QZVP            selected for orbital group  2
 Library entry O      P def2-QZVP            selected for orbital group  2
 Library entry O      D def2-QZVP            selected for orbital group  2
 Library entry O      F def2-QZVP            selected for orbital group  2
 Library entry O      G def2-QZVP            selected for orbital group  2
 Library entry H      S def2-QZVP            selected for orbital group  3
 Library entry H      P def2-QZVP            selected for orbital group  3
 Library entry H      D def2-QZVP            selected for orbital group  3
 Library entry H      F def2-QZVP            selected for orbital group  3


 PROGRAM * SEWARD (Integral evaluation for generally contracted gaussian basis sets)     Author: Roland Lindh, 1990

 Geometry written to block  1 of record 700


 Point group  C1  



 ATOMIC COORDINATES

 NR  ATOM    CHARGE       X              Y              Z

   1  C       6.00   -2.895684032    0.042462146    0.000000000
   2  C       6.00   -0.003628274    0.026853008    0.000000000
   3  O       8.00    0.703715112    2.652343999    0.000000000
   4  H       1.00    2.536919528    2.721885921    0.000000000
   5  H       1.00   -3.647001345   -1.886305720    0.000000000
   6  H       1.00   -3.605540754    1.027670861   -1.675298901
   7  H       1.00   -3.605540754    1.027670861    1.675298901
   8  C       6.00    1.026177977   -1.256025366   -2.392015328
   9  C       6.00    1.026177977   -1.256025366    2.392015328
  10  H       1.00    0.337051552   -0.278772398   -4.080731285
  11  H       1.00    0.337051552   -0.278772398    4.080731285
  12  H       1.00    0.448847749   -3.242770030   -2.499729718
  13  H       1.00    0.448847749   -3.242770030    2.499729718
  14  H       1.00    3.100738214   -1.205021658   -2.419454152
  15  H       1.00    3.100738214   -1.205021658    2.419454152

 Bond lengths in Bohr (Angstrom)

 1-2  2.892097881  1-5  2.069933136  1-6  2.069096224  1-7  2.069096224  2-3  2.719106031
     ( 1.530432290)     ( 1.095361444)     ( 1.094918569)     ( 1.094918569)     ( 1.438888946)

  2- 8  2.903104402   2- 9  2.903104402   3- 4  1.834522965   8-10  2.069222119   8-12  2.071730422
       ( 1.536256691)       ( 1.536256691)       ( 0.970787746)       ( 1.094985190)       ( 1.096312526)

  8-14  2.075368508   9-11  2.069222119   9-13  2.071730422   9-15  2.075368508
       ( 1.098237719)       ( 1.094985190)       ( 1.096312526)       ( 1.098237719)

 Bond angles

  1-2-3  104.76902697   1-2-8  110.92255387   1-2-9  110.92255387   2-1-5  110.97328220

  2- 1- 6  110.22090701   2- 1- 7  110.22090701   2- 3- 4  107.25071562   2- 8-10  110.21836376

  2- 8-12  111.57747468   2- 8-14  110.77023896   2- 9-11  110.21836376   2- 9-13  111.57747468

  2- 9-15  110.77023896   3- 2- 8  109.53648747   3- 2- 9  109.53648747   5- 1- 6  108.61190457

  5- 1- 7  108.61190457   6- 1- 7  108.12870271   8- 2- 9  110.96453384  10- 8-12  108.52192632

 10- 8-14  108.08997829  11- 9-13  108.52192632  11- 9-15  108.08997829  12- 8-14  107.54424578

 13- 9-15  107.54424578

 NUCLEAR CHARGE:                   42
 NUMBER OF PRIMITIVE AOS:         840
 NUMBER OF SYMMETRY AOS:          715
 NUMBER OF CONTRACTIONS:          585   ( 585A   )
 NUMBER OF CORE ORBITALS:           5   (   5A   )
 NUMBER OF VALENCE ORBITALS:       30   (  30A   )


 NUCLEAR REPULSION ENERGY  198.77359127


 Eigenvalues of metric

         1 0.447E-04 0.459E-04 0.470E-04 0.743E-04 0.823E-04 0.917E-04 0.943E-04 0.107E-03


 Contracted 2-electron integrals neglected if value below      1.0D-12
 AO integral compression algorithm  1   Integral accuracy      1.0D-12

     40752.906 MB (compressed) written to integral file ( 33.4%)


 NUMBER OF SORTED TWO-ELECTRON INTEGRALS:14689922715.     BUFFER LENGTH:  32768
 NUMBER OF SEGMENTS: 184  SEGMENT LENGTH:   79999773      RECORD LENGTH: 262144

 Memory used in sort:      80.29 MW

 SORT1 READ 15248138275. AND WROTE 10587813328. INTEGRALS IN  60679 RECORDS. CPU TIME:   184.06 SEC, REAL TIME:  1810.01 SEC
 SORT2 READ 10587813328. AND WROTE 14689922715. INTEGRALS IN 155460 RECORDS. CPU TIME:   294.20 SEC, REAL TIME:  2187.70 SEC

 FILE SIZES:   FILE 1: 40795.6 MBYTE,  FILE 4:127253.1 MBYTE,   TOTAL: 168048.8 MBYTE

 OPERATOR DM      FOR CENTER  0  COORDINATES:    0.000000    0.000000    0.000000


 **********************************************************************************************************************************
 DATASETS  * FILE   NREC   LENGTH (MB)   RECORD NAMES
              1      19    37754.71       500      610      700      900      950      970     1000      129      960     1100   
                                          VAR    BASINP    GEOM    SYMINP    ZMAT    AOBASIS   BASIS     P2S    ABASIS      S 
                                         1400     1410     1200     1210     1080     1600     1650     1300     1700   
                                           T        V       H0       H01     AOSYM     SMH    MOLCAS    ERIS     OPER   

 PROGRAMS   *        TOTAL       INT
 CPU TIMES  *      1129.44   1129.30
 REAL TIME  *      4723.57 SEC
 DISK USED  *       168.05 GB      
 **********************************************************************************************************************************

 Density functional group B-P=B88+P86
 Functional: B88(Automatically generated (new) B88)                            Gradient terms: 1
 Functional: P86(Automatically generated (new) P86)                            Gradient terms: 1
 Use grid at  1800.2

 Functional: B88                       Factor:  1.0000
 Functional: P86                       Factor:  1.0000

 Generated new metagrid on record  1800.2 with target accuracy 1.0D-06 and 58228 points in CPU time    1.6
 Computed new grid on record 1800.1 in CPU time    1.8
  469144 words reserved for DFT integration

 PROGRAM * UKS-SCF (Unrestricted Kohn-Sham)     Authors: W. Meyer, H.-J. Werner, P.J. Knowles, 1993

 NUMBER OF ELECTRONS:      21+   21-    SPACE SYMMETRY=1    SPIN SYMMETRY: Singlet 
 CONVERGENCE THRESHOLDS:    1.00E-05 (Density)    1.00E-06 (Energy)
 MAX. NUMBER OF ITERATIONS:       60
 INTERPOLATION TYPE:            DIIS
 INTERPOLATION STEPS:              2 (START)      1 (STEP)
 LEVEL SHIFTS:                 -0.20 (ALPHA)  -0.20 (BETA) 



 Use fine grid record 1800.2 for energy threshold  1.0D-06
 Orbital guess generated from atomic densities. Full valence occupancy:   21

 Molecular orbital dump at record        2200.2

 Initial alpha occupation  21
 Initial beta  occupation  21

 ITERATION    DDIFF          GRAD             ENERGY        2-EL.EN.            DIPOLE MOMENTS         DIIS
    1      0.000D+00      0.000D+00      -233.47736938    640.792466    0.69375   -0.77752    0.00000    0
    2      0.156D-02      0.137D-02      -233.71582874    614.228115    0.16685   -0.43662    0.00000    1
    3      0.485D-03      0.806D-03      -233.79195466    622.415241    0.35172   -0.56781    0.00000    2
    4      0.126D-03      0.110D-03      -233.79347184    622.225598    0.33564   -0.50968    0.00000    3
    5      0.148D-03      0.464D-04      -233.79401835    622.076506    0.33153   -0.51290    0.00000    4
    6      0.189D-03      0.154D-04      -233.79414807    622.009388    0.32885   -0.50399    0.00000    5
    7      0.575D-04      0.546D-05      -233.79415611    621.964339    0.32645   -0.50288    0.00000    6
    8      0.255D-04      0.341D-05      -233.79415852    621.980872    0.32640   -0.50334    0.00000    7
    9      0.896D-05      0.384D-06      -233.79415861    621.978785    0.32642   -0.50288    0.00000    7
   10      0.232D-05      0.116D-06      -233.79415862    621.979139    0.32625   -0.50307    0.00000    7

 Final alpha occupancy:  21
 Final beta  occupancy:  21

 !UKS STATE 1.1 Energy               -233.794158616493
 Nuclear energy                       198.77359127
 One-electron energy                 -709.50239889
 Two-electron energy                  310.98956950
 Density functional                   -34.05492051     B88=-32.55596574 P86= -1.49895477
 Virial quotient                       -1.00489384
 !UKS STATE 1.1 Dipole moment           0.32624680    -0.50306980     0.00000000
 Dipole moment /Debye                   0.82918233    -1.27859214     0.00000000

 Orbital energies for positive spin:

         1.1          2.1          3.1          4.1          5.1          6.1          7.1          8.1          9.1         10.1
    -18.764567    -9.959762    -9.890805    -9.890804    -9.885950    -0.934723    -0.718896    -0.628631    -0.627905    -0.517290

        11.1         12.1         13.1         14.1         15.1         16.1         17.1         18.1         19.1         20.1
     -0.443543    -0.408044    -0.405326    -0.370161    -0.356773    -0.340633    -0.327079    -0.316144    -0.309658    -0.282814

        21.1         22.1         23.1
     -0.230466    -0.006042     0.032570

 Orbital energies for negative spin:

         1.1          2.1          3.1          4.1          5.1          6.1          7.1          8.1          9.1         10.1
    -18.764565    -9.959763    -9.890803    -9.890803    -9.885949    -0.934721    -0.718895    -0.628630    -0.627904    -0.517290

        11.1         12.1         13.1         14.1         15.1         16.1         17.1         18.1         19.1         20.1
     -0.443542    -0.408044    -0.405325    -0.370160    -0.356772    -0.340633    -0.327078    -0.316143    -0.309658    -0.282813

        21.1         22.1         23.1
     -0.230464    -0.006044     0.032568

 HOMO    -21.1    -0.230464 =      -6.2712eV
 LUMO    -22.1    -0.006044 =      -0.1645eV
 LUMO-HOMO         0.224420 =       6.1068eV

 EXPECTATION VALUE OF S**2:             0.00000000

 Occupation number threshold for canonical orbitals:  1.999000 (occupied),  0.001000 (virtual)

 Number of pseudo-canonical orbitals per symmetry:   21
 Number of active natural orbitals per symmetry:      0

 Natural orbitals saved to record    2200.2 (Orbital set 3)

 Orbital spaces for UNO-CAS (Min. occupation: 0.020  Max. occupation: 1.980):

 Closed:       21
 Active:        0


 **********************************************************************************************************************************
 DATASETS  * FILE   NREC   LENGTH (MB)   RECORD NAMES
              1      20    37756.57       500      610      700      900      950      970     1000      129      960     1100   
                                          VAR    BASINP    GEOM    SYMINP    ZMAT    AOBASIS   BASIS     P2S    ABASIS      S 
                                         1400     1410     1200     1210     1080     1600     1650     1300     1700     1800   
                                           T        V       H0       H01     AOSYM     SMH    MOLCAS    ERIS     OPER     GRID   

              2       5       16.83       700     1000      520     1800     2200   
                                         GEOM     BASIS   MCVARS    GRID      UKS  

 PROGRAMS   *        TOTAL       UKS       INT
 CPU TIMES  *      2364.91   1235.47   1129.30
 REAL TIME  *      6215.44 SEC
 DISK USED  *       168.05 GB      
 **********************************************************************************************************************************


 PROGRAM * Intrinsic Basis Bonding Analysis (IBBA)          Author: G. Knizia

 Molecular orbitals read from record     2200.2  Type=UKS/ALPHA (state 1.1)
 Fock matrix read from record            2200.2  Type=UKS/TOTAL (state 1.1)
 Orbital energies read from record       2200.2  Type=UKS/ALPHA (state 1.1)
 Density matrix read from record         2200.2  Type=UKS/CHARGE (state 1.1)

 Number of core orbitals:           5 (   5 )
 Number of closed-shell orbitals:  16 (  16 )

 Basis set MINAO-AUTO-PP generated.      Number of basis functions:   35 

 Polarized AO type:                A = (O Ot + (1-O)(1-Ot)) P12
 Orthogonalization method:         Symmetric (Loewdin)
 Localization functional:          L = sum[A,i] <i|n_A|i>^4 -> max

 Localization group 1:  21 orbitals, occupancy  2.000
 Iterative localization: IB/PM,    7 iter; Final gradient 0.43E-08

 Bond order analysis:       [THRPRINT= 0.020]

   CEN ATOM   CEN ATOM     WIBERG.BO      RENORM.BO
     1   C  -   2   C       0.996562       0.993185
     1   C  -   5   H       0.960014       0.986119
     1   C  -   6   H       0.955313       0.979868
     1   C  -   7   H       0.955313       0.979868

     2   C  -   1   C       0.996562       0.993185
     2   C  -   9   C       0.995105       0.974007
     2   C  -   8   C       0.995105       0.974007
     2   C  -   3   O       0.935784       0.944205

     3   O  -   2   C       0.935784       0.944205
     3   O  -   4   H       0.859763       0.973696
     3   O  -   9   C       0.030371       0.015537
     3   O  -   8   C       0.030371       0.015537

     4   H  -   3   O       0.859763       0.973696

     5   H  -   1   C       0.960014       0.986119

     6   H  -   1   C       0.955313       0.979868

     7   H  -   1   C       0.955313       0.979868

     8   C  -   2   C       0.995105       0.974007
     8   C  -  14   H       0.959545       0.980690
     8   C  -  10   H       0.955920       0.979707
     8   C  -  12   H       0.955169       0.978990
     8   C  -   3   O       0.030371       0.015537

     9   C  -   2   C       0.995105       0.974007
     9   C  -  15   H       0.959545       0.980690
     9   C  -  11   H       0.955920       0.979707
     9   C  -  13   H       0.955169       0.978990
     9   C  -   3   O       0.030371       0.015537

    10   H  -   8   C       0.955920       0.979707

    11   H  -   9   C       0.955920       0.979707

    12   H  -   8   C       0.955169       0.978990

    13   H  -   9   C       0.955169       0.978990

    14   H  -   8   C       0.959545       0.980690

    15   H  -   9   C       0.959545       0.980690


 Valency analysis:

   CEN ATOM   TOT.VALENCE
     1   C       3.932221
     2   C       3.933624
     3   O       1.930829
     4   H       0.881287
     5   H       0.980217
     6   H       0.977740
     7   H       0.977740
     8   C       3.934935
     9   C       3.934935
    10   H       0.977809
    11   H       0.977809
    12   H       0.979599
    13   H       0.979599
    14   H       0.981954
    15   H       0.981954

 Total charge composition:

   CEN ATOM         s          p       ELECTRONS ->P.CHARGE
     1   C       3.04628    3.38488      6.43117   -0.43117
     2   C       2.94129    2.80986      5.75115    0.24885
     3   O       3.65295    4.91161      8.56456   -0.56456
     4   H       0.65545                 0.65545    0.34455
     5   H       0.85935                 0.85935    0.14065
     6   H       0.85080                 0.85080    0.14920
     7   H       0.85080                 0.85080    0.14920
     8   C       3.05310    3.39140      6.44450   -0.44450
     9   C       3.05310    3.39140      6.44450   -0.44450
    10   H       0.85103                 0.85103    0.14897
    11   H       0.85103                 0.85103    0.14897
    12   H       0.85717                 0.85717    0.14283
    13   H       0.85717                 0.85717    0.14283
    14   H       0.86566                 0.86566    0.13434
    15   H       0.86566                 0.86566    0.13434

 Total charge composition, AO contributions:

   CEN ATOM SHL      SPHERICAL COMPONENTS
     1   C  1s       1.99135
     1   C  2s       1.05494
     1   C  2p       1.04042    1.16608    1.17838

     2   C  1s       1.99296
     2   C  2s       0.94833
     2   C  2p       1.00771    0.79103    1.01113

     3   O  1s       1.99720
     3   O  2s       1.65575
     3   O  2p       1.47277    1.48736    1.95148

     4   H  1s       0.65545

     5   H  1s       0.85935

     6   H  1s       0.85080

     7   H  1s       0.85080

     8   C  1s       1.99145
     8   C  2s       1.06165
     8   C  2p       1.14783    1.14729    1.09627

     9   C  1s       1.99145
     9   C  2s       1.06165
     9   C  2p       1.14783    1.14729    1.09627

    10   H  1s       0.85103

    11   H  1s       0.85103

    12   H  1s       0.85717

    13   H  1s       0.85717

    14   H  1s       0.86566

    15   H  1s       0.86566

 Summary of localized orbital composition:   [THRPRINT= 0.020]

   ORB  GRP  ORB.ENERGY      CENTERS/CHARGES
     1   1   -18.610013      O  3   2.000
     2   1    -9.870170      C  2   2.000
     3   1    -9.778474      C  9   2.000
     4   1    -9.778474      C  8   2.000
     5   1    -9.772869      C  1   2.000
     6   1    -0.701241      O  3   1.347   H  4   0.643
     7   1    -0.659914      O  3   1.281   C  2   0.699
     8   1    -0.523790      C  8   1.007   C  2   0.977
     9   1    -0.523790      C  9   1.007   C  2   0.977
    10   1    -0.523474      C  1   0.990   C  2   0.984   (other: 0.025)
    11   1    -0.517781      O  3   1.980
    12   1    -0.459063      C  9   1.138   H 13   0.847
    13   1    -0.459063      C  8   1.138   H 12   0.847
    14   1    -0.457420      C  9   1.129   H 15   0.858
    15   1    -0.457420      C  8   1.129   H 14   0.858
    16   1    -0.455110      C  1   1.133   H  5   0.852
    17   1    -0.453178      C  8   1.146   H 10   0.842
    18   1    -0.453178      C  9   1.146   H 11   0.842
    19   1    -0.448880      C  1   1.146   H  7   0.842
    20   1    -0.448880      C  1   1.146   H  6   0.842
    21   1    -0.257815      O  3   1.951   (other: 0.049)

 Localized orbitals saved to record      2200.2  (orbital set 4)


 **********************************************************************************************************************************
 DATASETS  * FILE   NREC   LENGTH (MB)   RECORD NAMES
              1      20    37756.57       500      610      700      900      950      970     1000      129      960     1100   
                                          VAR    BASINP    GEOM    SYMINP    ZMAT    AOBASIS   BASIS     P2S    ABASIS      S 
                                         1400     1410     1200     1210     1080     1600     1650     1300     1700     1800   
                                           T        V       H0       H01     AOSYM     SMH    MOLCAS    ERIS     OPER     GRID   

              2       5       19.57       700     1000      520     1800     2200   
                                         GEOM     BASIS   MCVARS    GRID      UKS  

 PROGRAMS   *        TOTAL      IBBA       UKS       INT
 CPU TIMES  *      2365.36      0.45   1235.47   1129.30
 REAL TIME  *      6216.02 SEC
 DISK USED  *       168.05 GB      
 **********************************************************************************************************************************
 Molecular orbitals read from record     2200.2  Type=UKS/LOCAL(IBO)  
 Occupation numbers read from record     2200.2  Type=UKS/LOCAL(IBO)  
 Orbital energies read from record       2200.2  Type=UKS/LOCAL(IBO)  
 Redundancy group numbers read from rec  2200.2  Type=UKS/BETA (state 1.1)

 IBBA/QZVP energy=      0.000000000000

        UKS-SCF 
   -233.79415862
 **********************************************************************************************************************************
 Molpro calculation terminated
