
 Primary working directories    : /tmp/sb13343
 Secondary working directories  : /tmp/sb13343
 Wavefunction directory         : /panfs/panasas01/chem/sb13343/wfu/
 Main file repository           : /tmp/sb13343/

 SHA1      : b4a5b34a9e711420743f49e6833241d17c61fb3c
 NAME      : 2099.9.b4a5b34
 ARCHNAME  : linux/x86_64_openmp
 FC        : /cm/shared/languages/GCC-6.1/bin/gfortran
 BLASLIB   : -lblas
 id        : simonbennie

 Nodes     nprocs
 node32-014    1

 Using customized tuning parameters: mindgm=1; mindgv=20; mindgc=4; mindgr=1; noblas=0; minvec=7
 default implementation of scratch files=df  

 memory,500,m
 geomtyp=xyz
 nosym
 noorient
 geometry={
 C          0.00000        0.00000        0.00000
 C          1.54025       -0.00009       -0.00004
 C         -0.51333        1.45219       -0.00005
 C         -0.51349       -0.72611       -1.25756
 C         -0.51342       -0.72599        1.25765
 H         -1.60999        1.48489       -0.00002
 H         -1.61015       -0.74237       -1.28580
 H         -1.61008       -0.74225        1.28596
 H         -0.16312        1.99638        0.88591
 H         -0.16316        1.99630       -0.88608
 H         -0.16333       -0.23096       -2.17186
 H         -0.16339       -1.76551       -1.28580
 H         -0.16332       -1.76539        1.28596
 H         -0.16320       -0.23077        2.17189
 H          1.93652       -1.02316       -0.00001
 H          1.93658        0.51138       -0.88607
 H          1.93663        0.51146        0.88592
 }
 basis={ default,sto-3g }
 {ks,MM06-HF,direct;wf,42,1,0}
 {ibba,bonds=1}

 Variables initialized (895), CPU time= 0.00 sec
 Commands  initialized (725), CPU time= 0.02 sec, 591 directives.
 Default parameters read. Elapsed time= 0.08 sec

 Checking input...
 Passed
1


                                         ***  PROGRAM SYSTEM MOLPRO  ***
                                       Copyright, TTI GmbH Stuttgart, 2015
                                    Version 2099.9 linked May 26 2017 16:03:21


 **********************************************************************************************************************************
 LABEL *                                                                                 
  64 bit serial version                                                                  DATE: 08-Jun-17          TIME: 22:09:32  
 **********************************************************************************************************************************

 SHA1:             b4a5b34a9e711420743f49e6833241d17c61fb3c
 **********************************************************************************************************************************
 SETTING GEOMTYP        =    XYZ

 Variable memory set to  500000000 words,  buffer space 

 ZSYMEL=NOSYM

 SETTING BASIS          =    STO-3G


 Recomputing integrals since basis changed


 Using spherical harmonics

 Library entry C      S STO-3G               selected for orbital group  1
 Library entry C      P STO-3G               selected for orbital group  1
 Library entry H      S STO-3G               selected for orbital group  2


 PROGRAM * SEWARD (Integral evaluation for generally contracted gaussian basis sets)     Author: Roland Lindh, 1990

 Geometry written to block  1 of record 700


 Point group  C1  



 ATOMIC COORDINATES

 NR  ATOM    CHARGE       X              Y              Z

   1  C       6.00    0.000000000    0.000000000    0.000000000
   2  C       6.00    2.910650663   -0.000170075   -0.000075589
   3  C       6.00   -0.970053112    2.744241381   -0.000094486
   4  C       6.00   -0.970355468   -1.372149036   -2.376443985
   5  C       6.00   -0.970223187   -1.371922269    2.376614061
   6  H       1.00   -3.042440163    2.806035425   -0.000037795
   7  H       1.00   -3.042742519   -1.402875983   -2.429809851
   8  H       1.00   -3.042610239   -1.402649216    2.430112207
   9  H       1.00   -0.308252125    3.772611441    1.674127271
  10  H       1.00   -0.308327714    3.772460262   -1.674448524
  11  H       1.00   -0.308648968   -0.436451146   -4.104220581
  12  H       1.00   -0.308762351   -3.336330370   -2.429809851
  13  H       1.00   -0.308630071   -3.336103603    2.430112207
  14  H       1.00   -0.308403304   -0.436092098    4.104277273
  15  H       1.00    3.659492435   -1.933492182   -0.000018897
  16  H       1.00    3.659605818    0.966368146   -1.674429627
  17  H       1.00    3.659700305    0.966519324    1.674146168

 Bond lengths in Bohr (Angstrom)

  1- 2  2.910650669   1- 3  2.910646630   1- 4  2.910647475   1- 5  2.910635350   2-15  2.073282028
       ( 1.540250003)       ( 1.540247866)       ( 1.540248313)       ( 1.540241896)       ( 1.097133601)

  2-16  2.073304464   2-17  2.073302258   3- 6  2.073308129   3- 9  2.073293037   3-10  2.073300754
       ( 1.097145474)       ( 1.097144306)       ( 1.097147413)       ( 1.097139427)       ( 1.097143510)

  4- 7  2.073301752   4-11  2.073306055   4-12  2.073297296   5- 8  2.073305161   5-13  2.073300706
       ( 1.097144038)       ( 1.097146316)       ( 1.097141681)       ( 1.097145842)       ( 1.097143485)

  5-14  2.073307464
       ( 1.097147061)

 Bond angles

  1- 2-15  111.17643746   1- 2-16  111.17582452   1- 2-17  111.17607088   1- 3- 6  111.17575783

  1- 3- 9  111.17644989   1- 3-10  111.17611121   1- 4- 7  111.17614317   1- 4-11  111.17631877

  1- 4-12  111.17675056   1- 5- 8  111.17663037   1- 5-13  111.17645588   1- 5-14  111.17672823

  2-1-3  109.47117711   2-1-4  109.47117360   2-1-5  109.47107360   3-1-4  109.47144919

  3- 1- 5  109.47121161   4- 1- 5  109.47123870   6- 3- 9  107.71338639   6- 3-10  107.71391335

  7- 4-11  107.71323113   7- 4-12  107.71354587   8- 5-13  107.71328790   8- 5-14  107.71342022

  9- 3-10  107.71420977  11- 4-12  107.71378459  13- 5-14  107.71321488  15- 2-16  107.71365571

 15- 2-17  107.71411853  16- 2-17  107.71372051

 NUCLEAR CHARGE:                   42
 NUMBER OF PRIMITIVE AOS:         111
 NUMBER OF SYMMETRY AOS:          111
 NUMBER OF CONTRACTIONS:           37   (  37A   )
 NUMBER OF CORE ORBITALS:           5   (   5A   )
 NUMBER OF VALENCE ORBITALS:       32   (  32A   )


 NUCLEAR REPULSION ENERGY  197.66618863


 Eigenvalues of metric

         1 0.202E+00 0.229E+00 0.229E+00 0.229E+00 0.312E+00 0.362E+00 0.362E+00 0.362E+00


 Contracted 2-electron integrals neglected if value below      1.0D-11
 AO integral compression algorithm  1   Integral accuracy      1.0D-11

     2.097 MB (compressed) written to integral file ( 90.5%)


 NUMBER OF SORTED TWO-ELECTRON INTEGRALS:     247456.     BUFFER LENGTH:  32768
 NUMBER OF SEGMENTS:   1  SEGMENT LENGTH:     247456      RECORD LENGTH: 524288

 Memory used in sort:       0.80 MW

 SORT1 READ      274857. AND WROTE      242287. INTEGRALS IN      1 RECORDS. CPU TIME:     0.01 SEC, REAL TIME:     0.01 SEC
 SORT2 READ      242287. AND WROTE      247456. INTEGRALS IN      8 RECORDS. CPU TIME:     0.02 SEC, REAL TIME:     0.03 SEC

 FILE SIZES:   FILE 1:    32.4 MBYTE,  FILE 4:     4.2 MBYTE,   TOTAL:     36.6 MBYTE

 OPERATOR DM      FOR CENTER  0  COORDINATES:    0.000000    0.000000    0.000000


 **********************************************************************************************************************************
 DATASETS  * FILE   NREC   LENGTH (MB)   RECORD NAMES
              1      19       31.36       500      610      700      900      950      970     1000      129      960     1100   
                                          VAR    BASINP    GEOM    SYMINP    ZMAT    AOBASIS   BASIS     P2S    ABASIS      S 
                                         1400     1410     1200     1210     1080     1600     1650     1300     1700   
                                           T        V       H0       H01     AOSYM     SMH    MOLCAS    ERIS     OPER   

 PROGRAMS   *        TOTAL       INT
 CPU TIMES  *         0.72      0.58
 REAL TIME  *         1.02 SEC
 DISK USED  *        37.15 MB      
 **********************************************************************************************************************************

 Density functional group MM06-HF=M06HFX+M06HFC
 Functional: M06HFX(Automatically generated (new) M06HFX)                      Gradient terms: 2
 Functional: M06HFC(Automatically generated (new) M06HFC)                      Gradient terms: 2
 Use grid at  1800.2


 Exact exchange will be calculated, factor:  1.0000

 Functional: M06HFX                    Factor:  1.0000
 Functional: M06HFC                    Factor:  1.0000

 Generated new metagrid on record  1800.2 with target accuracy 1.0D-06 and 57016 points in CPU time    1.8
 Computed new grid on record 1800.1 in CPU time    2.0
   62217 words reserved for DFT integration

 PROGRAM * RKS-SCF (Restricted closed shell Kohn-Sham)     Authors: W. Meyer, H.-J. Werner, P.J. Knowles, 1993

 NUMBER OF ELECTRONS:      21+   21-    SPACE SYMMETRY=1    SPIN SYMMETRY: Singlet 
 CONVERGENCE THRESHOLDS:    1.00E-05 (Density)    1.00E-06 (Energy)
 MAX. NUMBER OF ITERATIONS:       60
 INTERPOLATION TYPE:            DIIS
 INTERPOLATION STEPS:              2 (START)      1 (STEP)
 LEVEL SHIFTS:                  0.00 (CLOSED)  0.00 (OPEN) 



 Use fine grid record 1800.2 for energy threshold  1.0D-06
 Orbital guess generated from atomic densities. Full valence occupancy:   21

 Molecular orbital dump at record        2100.2

 Initial occupancy:  21

 ITERATION    DDIFF          GRAD             ENERGY        2-EL.EN.            DIPOLE MOMENTS         DIIS   ORB.
    1      0.000D+00      0.000D+00      -195.28084394    536.625897    0.00002    0.00016   -0.00000    0    start
    2      0.000D+00      0.228D-01      -195.49066709    520.321266    0.00651    0.02026   -0.00001    1    diag
    3      0.502D-01      0.707D-02      -195.51186259    524.068056    0.00649    0.01267   -0.00000    2    diag
    4      0.122D-01      0.335D-03      -195.51194048    524.048748    0.00694    0.01239   -0.00000    3    diag
    5      0.784D-03      0.453D-04      -195.51194151    524.050073    0.00711    0.01252   -0.00000    4    diag
    6      0.109D-03      0.140D-04      -195.51194160    524.049671    0.00712    0.01253   -0.00000    5    diag
    7      0.268D-04      0.170D-05      -195.51194160    524.049580    0.00712    0.01254   -0.00000    6    diag
    8      0.331D-05      0.220D-06      -195.51194160    524.049588    0.00713    0.01254   -0.00000    0    orth

 Final occupancy:  21

 !RKS STATE 1.1 Energy               -195.511941598427
 Nuclear energy                       197.66618863
 One-electron energy                 -653.73346449
 Two-electron energy                  262.02479417
 SCF exchange energy                  -30.27546372     Factor= 1.0000
 Density functional                    -1.46945992     M06HFX= 0.00785265 M06HFC=-1.47731257
 Virial quotient                       -1.01711561
 !RKS STATE 1.1 Dipole moment           0.00712575     0.01254270    -0.00000218
 Dipole moment /Debye                   0.01811067     0.03187828    -0.00000555

 Orbital energies:

         1.1          2.1          3.1          4.1          5.1          6.1          7.1          8.1          9.1         10.1
    -10.804400   -10.783720   -10.783611   -10.783364   -10.783260    -0.986742    -0.836250    -0.835902    -0.835866    -0.663735

        11.1         12.1         13.1         14.1         15.1         16.1         17.1         18.1         19.1         20.1
     -0.568232    -0.568218    -0.567534    -0.515397    -0.515320    -0.475338    -0.474936    -0.474756    -0.408112    -0.407697

        21.1         22.1         23.1
     -0.406773     0.494852     0.495756

 HOMO     21.1    -0.406773 =     -11.0689eV
 LUMO     22.1     0.494852 =      13.4656eV
 LUMO-HOMO         0.901625 =      24.5345eV


 **********************************************************************************************************************************
 DATASETS  * FILE   NREC   LENGTH (MB)   RECORD NAMES
              1      20       33.19       500      610      700      900      950      970     1000      129      960     1100   
                                          VAR    BASINP    GEOM    SYMINP    ZMAT    AOBASIS   BASIS     P2S    ABASIS      S 
                                         1400     1410     1200     1210     1080     1600     1650     1300     1700     1800   
                                           T        V       H0       H01     AOSYM     SMH    MOLCAS    ERIS     OPER     GRID   

              2       5        3.06       700     1000      520     1800     2100   
                                         GEOM     BASIS   MCVARS    GRID      RKS  

 PROGRAMS   *        TOTAL        KS       INT
 CPU TIMES  *        10.64      9.92      0.58
 REAL TIME  *        11.35 SEC
 DISK USED  *        37.15 MB      
 **********************************************************************************************************************************


 PROGRAM * Intrinsic Basis Bonding Analysis (IBBA)          Author: G. Knizia

 Molecular orbitals read from record     2100.2  Type=RKS/CANONICAL (state 1.1)
 Fock matrix read from record            2100.2  Type=RKS/TOTAL (state 1.1)
 Orbital energies read from record       2100.2  Type=RKS/CANONICAL (state 1.1)
 Density matrix read from record         2100.2  Type=RKS/CHARGE (state 1.1)

 Number of core orbitals:           5 (   5 )
 Number of closed-shell orbitals:  16 (  16 )

 Basis set MINAO-AUTO-PP generated.      Number of basis functions:   37 

 Polarized AO type:                A = (O Ot + (1-O)(1-Ot)) P12
 Orthogonalization method:         Symmetric (Loewdin)
 Localization functional:          L = sum[A,i] <i|n_A|i>^4 -> max

 Localization group 1:  21 orbitals, occupancy  2.000
 Iterative localization: IB/PM,    7 iter; Final gradient 0.73E-08

 Bond order analysis:       [THRPRINT= 0.020]

   CEN ATOM   CEN ATOM     WIBERG.BO      RENORM.BO
     1   C  -   2   C       0.995044       0.996712
     1   C  -   5   C       0.994718       0.996443
     1   C  -   4   C       0.994717       0.996441
     1   C  -   3   C       0.994385       0.996290

     2   C  -   1   C       0.995044       0.996712
     2   C  -  15   H       0.968571       0.988267
     2   C  -  17   H       0.968514       0.988439
     2   C  -  16   H       0.968514       0.988439

     3   C  -   1   C       0.994385       0.996290
     3   C  -   6   H       0.968723       0.988410
     3   C  -  10   H       0.968551       0.988533
     3   C  -   9   H       0.968551       0.988533

     4   C  -   1   C       0.994717       0.996441
     4   C  -  12   H       0.968846       0.988357
     4   C  -   7   H       0.968818       0.988454
     4   C  -  11   H       0.968626       0.988598

     5   C  -   1   C       0.994718       0.996443
     5   C  -  13   H       0.968846       0.988356
     5   C  -   8   H       0.968818       0.988453
     5   C  -  14   H       0.968626       0.988598

     6   H  -   3   C       0.968723       0.988410

     7   H  -   4   C       0.968818       0.988454

     8   H  -   5   C       0.968818       0.988453

     9   H  -   3   C       0.968551       0.988533

    10   H  -   3   C       0.968551       0.988533

    11   H  -   4   C       0.968626       0.988598

    12   H  -   4   C       0.968846       0.988357

    13   H  -   5   C       0.968846       0.988356

    14   H  -   5   C       0.968626       0.988598

    15   H  -   2   C       0.968571       0.988267

    16   H  -   2   C       0.968514       0.988439

    17   H  -   2   C       0.968514       0.988439


 Valency analysis:

   CEN ATOM   TOT.VALENCE
     1   C       3.992628
     2   C       3.936448
     3   C       3.936303
     4   C       3.936753
     5   C       3.936753
     6   H       0.985317
     7   H       0.985355
     8   H       0.985356
     9   H       0.985049
    10   H       0.985049
    11   H       0.985053
    12   H       0.985400
    13   H       0.985400
    14   H       0.985053
    15   H       0.985288
    16   H       0.985108
    17   H       0.985109

 Total charge composition:

   CEN ATOM         s          p       ELECTRONS ->P.CHARGE
     1   C       2.92373    3.07336      5.99709    0.00291
     2   C       2.97372    3.39191      6.36563   -0.36563
     3   C       2.97348    3.39204      6.36552   -0.36552
     4   C       2.97365    3.39187      6.36553   -0.36553
     5   C       2.97365    3.39187      6.36552   -0.36552
     6   H       0.87883                 0.87883    0.12117
     7   H       0.87899                 0.87899    0.12101
     8   H       0.87899                 0.87899    0.12101
     9   H       0.87773                 0.87773    0.12227
    10   H       0.87773                 0.87773    0.12227
    11   H       0.87774                 0.87774    0.12226
    12   H       0.87917                 0.87917    0.12083
    13   H       0.87917                 0.87917    0.12083
    14   H       0.87774                 0.87774    0.12226
    15   H       0.87871                 0.87871    0.12129
    16   H       0.87797                 0.87797    0.12203
    17   H       0.87797                 0.87797    0.12203

 Total charge composition, AO contributions:

   CEN ATOM SHL      SPHERICAL COMPONENTS
     1   C  1s       1.99206
     1   C  2s       0.93167
     1   C  2p       1.02438    1.02472    1.02426

     2   C  1s       1.99125
     2   C  2s       0.98247
     2   C  2p       1.05613    1.16786    1.16792

     3   C  1s       1.99125
     3   C  2s       0.98223
     3   C  2p       1.15497    1.06879    1.16828

     4   C  1s       1.99125
     4   C  2s       0.98240
     4   C  2p       1.15503    1.14219    1.09466

     5   C  1s       1.99125
     5   C  2s       0.98240
     5   C  2p       1.15503    1.14219    1.09465

     6   H  1s       0.87883

     7   H  1s       0.87899

     8   H  1s       0.87899

     9   H  1s       0.87773

    10   H  1s       0.87773

    11   H  1s       0.87774

    12   H  1s       0.87917

    13   H  1s       0.87917

    14   H  1s       0.87774

    15   H  1s       0.87871

    16   H  1s       0.87797

    17   H  1s       0.87797

 Summary of localized orbital composition:   [THRPRINT= 0.020]

   ORB  GRP  ORB.ENERGY      CENTERS/CHARGES
     1   1   -10.700244      C  1   2.000
     2   1   -10.667097      C  2   2.000
     3   1   -10.667027      C  3   2.000
     4   1   -10.666730      C  4   2.000
     5   1   -10.666730      C  5   2.000
     6   1    -0.660269      C  2   0.991   C  1   0.989
     7   1    -0.659962      C  5   0.992   C  1   0.988
     8   1    -0.659956      C  4   0.992   C  1   0.988
     9   1    -0.659880      C  3   0.991   C  1   0.990
    10   1    -0.623187      C  4   1.122   H 11   0.871
    11   1    -0.623186      C  5   1.122   H 14   0.871
    12   1    -0.623162      C  3   1.122   H  9   0.871
    13   1    -0.623159      C  3   1.122   H 10   0.871
    14   1    -0.622811      C  2   1.121   H 15   0.872
    15   1    -0.622778      C  2   1.122   H 17   0.872
    16   1    -0.622777      C  2   1.122   H 16   0.872
    17   1    -0.622531      C  3   1.121   H  6   0.872
    18   1    -0.622078      C  4   1.121   H  7   0.873
    19   1    -0.622077      C  5   1.121   H  8   0.873
    20   1    -0.621762      C  4   1.120   H 12   0.873
    21   1    -0.621760      C  5   1.120   H 13   0.873

 Localized orbitals saved to record      2100.2  (orbital set 2)


 **********************************************************************************************************************************
 DATASETS  * FILE   NREC   LENGTH (MB)   RECORD NAMES
              1      20       33.19       500      610      700      900      950      970     1000      129      960     1100   
                                          VAR    BASINP    GEOM    SYMINP    ZMAT    AOBASIS   BASIS     P2S    ABASIS      S 
                                         1400     1410     1200     1210     1080     1600     1650     1300     1700     1800   
                                           T        V       H0       H01     AOSYM     SMH    MOLCAS    ERIS     OPER     GRID   

              2       5        3.07       700     1000      520     1800     2100   
                                         GEOM     BASIS   MCVARS    GRID      RKS  

 PROGRAMS   *        TOTAL      IBBA        KS       INT
 CPU TIMES  *        10.67      0.03      9.92      0.58
 REAL TIME  *        11.50 SEC
 DISK USED  *        37.15 MB      
 **********************************************************************************************************************************
 Molecular orbitals read from record     2100.2  Type=RKS/LOCAL(IBO)  
 Occupation numbers read from record     2100.2  Type=RKS/LOCAL(IBO)  
 Orbital energies read from record       2100.2  Type=RKS/LOCAL(IBO)  
 Redundancy group numbers read from rec  2100.2  Type=RKS/LOCAL(IBO)  

 IBBA/STO-3G energy=      0.000000000000

        KS-SCF  
   -195.51194160
 **********************************************************************************************************************************
 Molpro calculation terminated
