
 Primary working directories    : /tmp/sb13343
 Secondary working directories  : /tmp/sb13343
 Wavefunction directory         : /panfs/panasas01/chem/sb13343/wfu/
 Main file repository           : /tmp/sb13343/

 SHA1      : b4a5b34a9e711420743f49e6833241d17c61fb3c
 NAME      : 2099.9.b4a5b34
 ARCHNAME  : linux/x86_64_openmp
 FC        : /cm/shared/languages/GCC-6.1/bin/gfortran
 BLASLIB   : -lblas
 id        : simonbennie

 Nodes     nprocs
 node33-008    1

 Using customized tuning parameters: mindgm=1; mindgv=20; mindgc=4; mindgr=1; noblas=0; minvec=7
 default implementation of scratch files=df  

 memory,500,m
 geomtyp=xyz
 nosym
 noorient
 geometry={
 C          0.00000        0.00000        0.00000
 C          1.54025       -0.00009       -0.00004
 C         -0.51333        1.45219       -0.00005
 C         -0.51349       -0.72611       -1.25756
 C         -0.51342       -0.72599        1.25765
 H         -1.60999        1.48489       -0.00002
 H         -1.61015       -0.74237       -1.28580
 H         -1.61008       -0.74225        1.28596
 H         -0.16312        1.99638        0.88591
 H         -0.16316        1.99630       -0.88608
 H         -0.16333       -0.23096       -2.17186
 H         -0.16339       -1.76551       -1.28580
 H         -0.16332       -1.76539        1.28596
 H         -0.16320       -0.23077        2.17189
 H          1.93652       -1.02316       -0.00001
 H          1.93658        0.51138       -0.88607
 H          1.93663        0.51146        0.88592
 }
 basis={ default,svp }
 {uks,SOGGA11-X,direct;wf,42,1,0}
 {ibba,bonds=1}

 Variables initialized (895), CPU time= 0.00 sec
 Commands  initialized (725), CPU time= 0.01 sec, 591 directives.
 Default parameters read. Elapsed time= 0.10 sec

 Checking input...
 Passed
1


                                         ***  PROGRAM SYSTEM MOLPRO  ***
                                       Copyright, TTI GmbH Stuttgart, 2015
                                    Version 2099.9 linked May 26 2017 16:03:21


 **********************************************************************************************************************************
 LABEL *                                                                                 
  64 bit serial version                                                                  DATE: 08-Jun-17          TIME: 22:38:20  
 **********************************************************************************************************************************

 SHA1:             b4a5b34a9e711420743f49e6833241d17c61fb3c
 **********************************************************************************************************************************
 SETTING GEOMTYP        =    XYZ

 Variable memory set to  500000000 words,  buffer space 

 ZSYMEL=NOSYM

 SETTING BASIS          =    SVP


 Recomputing integrals since basis changed


 Using spherical harmonics

 Library entry C      S def2-SVP             selected for orbital group  1
 Library entry C      P def2-SVP             selected for orbital group  1
 Library entry C      D def2-SVP             selected for orbital group  1
 Library entry H      S def2-SVP             selected for orbital group  2
 Library entry H      P def2-SVP             selected for orbital group  2


 PROGRAM * SEWARD (Integral evaluation for generally contracted gaussian basis sets)     Author: Roland Lindh, 1990

 Geometry written to block  1 of record 700


 Point group  C1  



 ATOMIC COORDINATES

 NR  ATOM    CHARGE       X              Y              Z

   1  C       6.00    0.000000000    0.000000000    0.000000000
   2  C       6.00    2.910650663   -0.000170075   -0.000075589
   3  C       6.00   -0.970053112    2.744241381   -0.000094486
   4  C       6.00   -0.970355468   -1.372149036   -2.376443985
   5  C       6.00   -0.970223187   -1.371922269    2.376614061
   6  H       1.00   -3.042440163    2.806035425   -0.000037795
   7  H       1.00   -3.042742519   -1.402875983   -2.429809851
   8  H       1.00   -3.042610239   -1.402649216    2.430112207
   9  H       1.00   -0.308252125    3.772611441    1.674127271
  10  H       1.00   -0.308327714    3.772460262   -1.674448524
  11  H       1.00   -0.308648968   -0.436451146   -4.104220581
  12  H       1.00   -0.308762351   -3.336330370   -2.429809851
  13  H       1.00   -0.308630071   -3.336103603    2.430112207
  14  H       1.00   -0.308403304   -0.436092098    4.104277273
  15  H       1.00    3.659492435   -1.933492182   -0.000018897
  16  H       1.00    3.659605818    0.966368146   -1.674429627
  17  H       1.00    3.659700305    0.966519324    1.674146168

 Bond lengths in Bohr (Angstrom)

  1- 2  2.910650669   1- 3  2.910646630   1- 4  2.910647475   1- 5  2.910635350   2-15  2.073282028
       ( 1.540250003)       ( 1.540247866)       ( 1.540248313)       ( 1.540241896)       ( 1.097133601)

  2-16  2.073304464   2-17  2.073302258   3- 6  2.073308129   3- 9  2.073293037   3-10  2.073300754
       ( 1.097145474)       ( 1.097144306)       ( 1.097147413)       ( 1.097139427)       ( 1.097143510)

  4- 7  2.073301752   4-11  2.073306055   4-12  2.073297296   5- 8  2.073305161   5-13  2.073300706
       ( 1.097144038)       ( 1.097146316)       ( 1.097141681)       ( 1.097145842)       ( 1.097143485)

  5-14  2.073307464
       ( 1.097147061)

 Bond angles

  1- 2-15  111.17643746   1- 2-16  111.17582452   1- 2-17  111.17607088   1- 3- 6  111.17575783

  1- 3- 9  111.17644989   1- 3-10  111.17611121   1- 4- 7  111.17614317   1- 4-11  111.17631877

  1- 4-12  111.17675056   1- 5- 8  111.17663037   1- 5-13  111.17645588   1- 5-14  111.17672823

  2-1-3  109.47117711   2-1-4  109.47117360   2-1-5  109.47107360   3-1-4  109.47144919

  3- 1- 5  109.47121161   4- 1- 5  109.47123870   6- 3- 9  107.71338639   6- 3-10  107.71391335

  7- 4-11  107.71323113   7- 4-12  107.71354587   8- 5-13  107.71328790   8- 5-14  107.71342022

  9- 3-10  107.71420977  11- 4-12  107.71378459  13- 5-14  107.71321488  15- 2-16  107.71365571

 15- 2-17  107.71411853  16- 2-17  107.71372051

 NUCLEAR CHARGE:                   42
 NUMBER OF PRIMITIVE AOS:         209
 NUMBER OF SYMMETRY AOS:          204
 NUMBER OF CONTRACTIONS:          130   ( 130A   )
 NUMBER OF CORE ORBITALS:           5   (   5A   )
 NUMBER OF VALENCE ORBITALS:       32   (  32A   )


 NUCLEAR REPULSION ENERGY  197.66618863


 Eigenvalues of metric

         1 0.175E-02 0.577E-02 0.577E-02 0.577E-02 0.252E-01 0.252E-01 0.252E-01 0.256E-01


 Contracted 2-electron integrals neglected if value below      1.0D-11
 AO integral compression algorithm  1   Integral accuracy      1.0D-11

     139.198 MB (compressed) written to integral file ( 45.3%)


 NUMBER OF SORTED TWO-ELECTRON INTEGRALS:   36256870.     BUFFER LENGTH:  32768
 NUMBER OF SEGMENTS:   3  SEGMENT LENGTH:   15998004      RECORD LENGTH: 524288

 Memory used in sort:      16.56 MW

 SORT1 READ    38373714. AND WROTE    33465425. INTEGRALS IN     97 RECORDS. CPU TIME:     0.47 SEC, REAL TIME:     0.93 SEC
 SORT2 READ    33465425. AND WROTE    36256870. INTEGRALS IN    531 RECORDS. CPU TIME:     0.78 SEC, REAL TIME:     1.02 SEC

 FILE SIZES:   FILE 1:   170.1 MBYTE,  FILE 4:   406.9 MBYTE,   TOTAL:    576.9 MBYTE

 OPERATOR DM      FOR CENTER  0  COORDINATES:    0.000000    0.000000    0.000000


 **********************************************************************************************************************************
 DATASETS  * FILE   NREC   LENGTH (MB)   RECORD NAMES
              1      19      153.85       500      610      700      900      950      970     1000      129      960     1100   
                                          VAR    BASINP    GEOM    SYMINP    ZMAT    AOBASIS   BASIS     P2S    ABASIS      S 
                                         1400     1410     1200     1210     1080     1600     1650     1300     1700   
                                           T        V       H0       H01     AOSYM     SMH    MOLCAS    ERIS     OPER   

 PROGRAMS   *        TOTAL       INT
 CPU TIMES  *         5.12      4.97
 REAL TIME  *         7.75 SEC
 DISK USED  *       577.52 MB      
 **********************************************************************************************************************************

 Density functional group SOGGA11-X=XC-SOGGA11-X
 Functional: XC-SOGGA11-X(via MFM 1.6)                                         Gradient terms: 1
 Use grid at  1800.2


 Exact exchange will be calculated, factor:  0.4015

 Functional: XC-SOGGA11-X              Factor:  1.0000

 Generated new metagrid on record  1800.2 with target accuracy 1.0D-06 and 57016 points in CPU time    1.8
 Computed new grid on record 1800.1 in CPU time    2.0
  107513 words reserved for DFT integration

 PROGRAM * UKS-SCF (Unrestricted Kohn-Sham)     Authors: W. Meyer, H.-J. Werner, P.J. Knowles, 1993

 NUMBER OF ELECTRONS:      21+   21-    SPACE SYMMETRY=1    SPIN SYMMETRY: Singlet 
 CONVERGENCE THRESHOLDS:    1.00E-05 (Density)    1.00E-06 (Energy)
 MAX. NUMBER OF ITERATIONS:       60
 INTERPOLATION TYPE:            DIIS
 INTERPOLATION STEPS:              2 (START)      1 (STEP)
 LEVEL SHIFTS:                 -0.20 (ALPHA)  -0.20 (BETA) 



 Use fine grid record 1800.2 for energy threshold  1.0D-06
 Orbital guess generated from atomic densities. Full valence occupancy:   21

 Molecular orbital dump at record        2200.2

 Initial alpha occupation  21
 Initial beta  occupation  21

 ITERATION    DDIFF          GRAD             ENERGY        2-EL.EN.            DIPOLE MOMENTS         DIIS
    1      0.000D+00      0.000D+00      -197.47026467    569.240425   -0.00002   -0.00057   -0.00000    0
    2      0.670D-02      0.348D-02      -197.58491364    556.489780    0.00000   -0.00031    0.00000    1
    3      0.176D-02      0.106D-02      -197.59360121    558.742247   -0.00008   -0.00031    0.00000    2
    4      0.967D-03      0.225D-03      -197.59461808    558.507988   -0.00022   -0.00042    0.00000    3
    5      0.343D-03      0.710D-04      -197.59472141    558.512018   -0.00030   -0.00053    0.00000    4
    6      0.158D-03      0.205D-04      -197.59473044    558.489763   -0.00036   -0.00065    0.00000    5
    7      0.250D-04      0.293D-05      -197.59473067    558.489814   -0.00037   -0.00070    0.00000    6
    8      0.367D-05      0.536D-06      -197.59473068    558.490093   -0.00038   -0.00071    0.00000    5
    9      0.508D-06      0.103D-06      -197.59473068    558.489823   -0.00038   -0.00072    0.00000    5

 Final alpha occupancy:  21
 Final beta  occupancy:  21

 !UKS STATE 1.1 Energy               -197.594730679768
 Nuclear energy                       197.66618863
 One-electron energy                 -655.06511517
 Two-electron energy                  279.24491149
 Density functional                   -19.44071563     XC-SOGGA11-X=-19.44071563
 Virial quotient                       -1.01377505
 !UKS STATE 1.1 Dipole moment          -0.00038005    -0.00071649     0.00000091
 Dipole moment /Debye                  -0.00096592    -0.00182101     0.00000232

 Orbital energies for positive spin:

         1.1          2.1          3.1          4.1          5.1          6.1          7.1          8.1          9.1         10.1
    -10.461921   -10.440864   -10.440856   -10.440853   -10.440831    -0.899509    -0.750876    -0.750873    -0.750872    -0.589543

        11.1         12.1         13.1         14.1         15.1         16.1         17.1         18.1         19.1         20.1
     -0.497510    -0.497502    -0.497496    -0.445434    -0.445428    -0.406700    -0.406697    -0.406690    -0.362539    -0.362521

        21.1         22.1         23.1
     -0.362514     0.074483     0.137537

 Orbital energies for negative spin:

         1.1          2.1          3.1          4.1          5.1          6.1          7.1          8.1          9.1         10.1
    -10.461921   -10.440864   -10.440856   -10.440853   -10.440831    -0.899509    -0.750876    -0.750873    -0.750872    -0.589543

        11.1         12.1         13.1         14.1         15.1         16.1         17.1         18.1         19.1         20.1
     -0.497510    -0.497502    -0.497496    -0.445434    -0.445428    -0.406700    -0.406697    -0.406690    -0.362539    -0.362521

        21.1         22.1         23.1
     -0.362514     0.074483     0.137537

 HOMO     21.1    -0.362514 =      -9.8645eV
 LUMO     22.1     0.074483 =       2.0268eV
 LUMO-HOMO         0.436998 =      11.8913eV

 EXPECTATION VALUE OF S**2:             0.00000000

 Natural orbitals saved to record    2200.2 (Orbital set 3)

 Orbital spaces for UNO-CAS (Min. occupation: 0.020  Max. occupation: 1.980):

 Closed:       21
 Active:        0


 **********************************************************************************************************************************
 DATASETS  * FILE   NREC   LENGTH (MB)   RECORD NAMES
              1      20      155.67       500      610      700      900      950      970     1000      129      960     1100   
                                          VAR    BASINP    GEOM    SYMINP    ZMAT    AOBASIS   BASIS     P2S    ABASIS      S 
                                         1400     1410     1200     1210     1080     1600     1650     1300     1700     1800   
                                           T        V       H0       H01     AOSYM     SMH    MOLCAS    ERIS     OPER     GRID   

              2       5        3.74       700     1000      520     1800     2200   
                                         GEOM     BASIS   MCVARS    GRID      UKS  

 PROGRAMS   *        TOTAL       UKS       INT
 CPU TIMES  *        33.26     28.14      4.97
 REAL TIME  *        36.23 SEC
 DISK USED  *       577.52 MB      
 **********************************************************************************************************************************


 PROGRAM * Intrinsic Basis Bonding Analysis (IBBA)          Author: G. Knizia

 Molecular orbitals read from record     2200.2  Type=UKS/ALPHA (state 1.1)
 Fock matrix read from record            2200.2  Type=UKS/TOTAL (state 1.1)
 Orbital energies read from record       2200.2  Type=UKS/ALPHA (state 1.1)
 Density matrix read from record         2200.2  Type=UKS/CHARGE (state 1.1)

 Number of core orbitals:           5 (   5 )
 Number of closed-shell orbitals:  16 (  16 )

 Basis set MINAO-AUTO-PP generated.      Number of basis functions:   37 

 Polarized AO type:                A = (O Ot + (1-O)(1-Ot)) P12
 Orthogonalization method:         Symmetric (Loewdin)
 Localization functional:          L = sum[A,i] <i|n_A|i>^4 -> max

 Localization group 1:  21 orbitals, occupancy  2.000
 Iterative localization: IB/PM,    7 iter; Final gradient 0.21E-08

 Bond order analysis:       [THRPRINT= 0.020]

   CEN ATOM   CEN ATOM     WIBERG.BO      RENORM.BO
     1   C  -   3   C       0.997455       0.998117
     1   C  -   2   C       0.997450       0.998110
     1   C  -   5   C       0.997440       0.998109
     1   C  -   4   C       0.997438       0.998107

     2   C  -   1   C       0.997450       0.998110
     2   C  -  16   H       0.966936       0.982438
     2   C  -  17   H       0.966935       0.982438
     2   C  -  15   H       0.966930       0.982455

     3   C  -   1   C       0.997455       0.998117
     3   C  -  10   H       0.966941       0.982442
     3   C  -   9   H       0.966941       0.982442
     3   C  -   6   H       0.966929       0.982455

     4   C  -   1   C       0.997438       0.998107
     4   C  -  11   H       0.966949       0.982436
     4   C  -   7   H       0.966934       0.982449
     4   C  -  12   H       0.966927       0.982452

     5   C  -   1   C       0.997440       0.998109
     5   C  -  14   H       0.966949       0.982435
     5   C  -   8   H       0.966933       0.982448
     5   C  -  13   H       0.966927       0.982451

     6   H  -   3   C       0.966929       0.982455

     7   H  -   4   C       0.966934       0.982449

     8   H  -   5   C       0.966933       0.982448

     9   H  -   3   C       0.966941       0.982442

    10   H  -   3   C       0.966941       0.982442

    11   H  -   4   C       0.966949       0.982436

    12   H  -   4   C       0.966927       0.982452

    13   H  -   5   C       0.966927       0.982451

    14   H  -   5   C       0.966949       0.982435

    15   H  -   2   C       0.966930       0.982455

    16   H  -   2   C       0.966936       0.982438

    17   H  -   2   C       0.966935       0.982438


 Valency analysis:

   CEN ATOM   TOT.VALENCE
     1   C       3.995370
     2   C       3.948718
     3   C       3.948726
     4   C       3.948724
     5   C       3.948724
     6   H       0.985296
     7   H       0.985303
     8   H       0.985303
     9   H       0.985316
    10   H       0.985316
    11   H       0.985328
    12   H       0.985295
    13   H       0.985295
    14   H       0.985328
    15   H       0.985297
    16   H       0.985312
    17   H       0.985312

 Total charge composition:

   CEN ATOM         s          p       ELECTRONS ->P.CHARGE
     1   C       2.92993    3.00235      5.93228    0.06772
     2   C       3.02773    3.35283      6.38056   -0.38056
     3   C       3.02773    3.35282      6.38055   -0.38055
     4   C       3.02774    3.35282      6.38056   -0.38056
     5   C       3.02774    3.35282      6.38056   -0.38056
     6   H       0.87874                 0.87874    0.12126
     7   H       0.87877                 0.87877    0.12123
     8   H       0.87877                 0.87877    0.12123
     9   H       0.87882                 0.87882    0.12118
    10   H       0.87882                 0.87882    0.12118
    11   H       0.87887                 0.87887    0.12113
    12   H       0.87873                 0.87873    0.12127
    13   H       0.87874                 0.87874    0.12126
    14   H       0.87887                 0.87887    0.12113
    15   H       0.87874                 0.87874    0.12126
    16   H       0.87881                 0.87881    0.12119
    17   H       0.87880                 0.87880    0.12120

 Total charge composition, AO contributions:

   CEN ATOM SHL      SPHERICAL COMPONENTS
     1   C  1s       1.99151
     1   C  2s       0.93842
     1   C  2p       1.00083    1.00080    1.00072

     2   C  1s       1.99053
     2   C  2s       1.03720
     2   C  2p       1.05130    1.15080    1.15073

     3   C  1s       1.99053
     3   C  2s       1.03719
     3   C  2p       1.13975    1.06237    1.15070

     4   C  1s       1.99053
     4   C  2s       1.03721
     4   C  2p       1.13973    1.12870    1.08440

     5   C  1s       1.99053
     5   C  2s       1.03720
     5   C  2p       1.13973    1.12870    1.08439

     6   H  1s       0.87874

     7   H  1s       0.87877

     8   H  1s       0.87877

     9   H  1s       0.87882

    10   H  1s       0.87882

    11   H  1s       0.87887

    12   H  1s       0.87873

    13   H  1s       0.87874

    14   H  1s       0.87887

    15   H  1s       0.87874

    16   H  1s       0.87881

    17   H  1s       0.87880

 Summary of localized orbital composition:   [THRPRINT= 0.020]

   ORB  GRP  ORB.ENERGY      CENTERS/CHARGES
     1   1   -10.361756      C  1   2.000
     2   1   -10.323459      C  3   2.000
     3   1   -10.323450      C  2   2.000
     4   1   -10.323445      C  4   2.000
     5   1   -10.323445      C  5   2.000
     6   1    -0.608113      C  2   1.007   C  1   0.969   (other: 0.024)
     7   1    -0.608106      C  5   1.007   C  1   0.969   (other: 0.024)
     8   1    -0.608103      C  3   1.007   C  1   0.969   (other: 0.024)
     9   1    -0.608101      C  4   1.007   C  1   0.969   (other: 0.024)
    10   1    -0.547522      C  4   1.120   H  7   0.871
    11   1    -0.547521      C  5   1.120   H  8   0.871
    12   1    -0.547515      C  3   1.120   H  6   0.871
    13   1    -0.547511      C  2   1.120   H 15   0.871
    14   1    -0.547510      C  3   1.120   H  9   0.871
    15   1    -0.547510      C  2   1.120   H 17   0.871
    16   1    -0.547509      C  2   1.120   H 16   0.871
    17   1    -0.547508      C  3   1.120   H 10   0.871
    18   1    -0.547506      C  4   1.120   H 11   0.872
    19   1    -0.547506      C  5   1.120   H 14   0.872
    20   1    -0.547504      C  4   1.120   H 12   0.871
    21   1    -0.547502      C  5   1.120   H 13   0.871

 Localized orbitals saved to record      2200.2  (orbital set 4)


 **********************************************************************************************************************************
 DATASETS  * FILE   NREC   LENGTH (MB)   RECORD NAMES
              1      20      155.67       500      610      700      900      950      970     1000      129      960     1100   
                                          VAR    BASINP    GEOM    SYMINP    ZMAT    AOBASIS   BASIS     P2S    ABASIS      S 
                                         1400     1410     1200     1210     1080     1600     1650     1300     1700     1800   
                                           T        V       H0       H01     AOSYM     SMH    MOLCAS    ERIS     OPER     GRID   

              2       5        3.88       700     1000      520     1800     2200   
                                         GEOM     BASIS   MCVARS    GRID      UKS  

 PROGRAMS   *        TOTAL      IBBA       UKS       INT
 CPU TIMES  *        33.30      0.03     28.14      4.97
 REAL TIME  *        36.36 SEC
 DISK USED  *       577.52 MB      
 **********************************************************************************************************************************
 Molecular orbitals read from record     2200.2  Type=UKS/LOCAL(IBO)  
 Occupation numbers read from record     2200.2  Type=UKS/LOCAL(IBO)  
 Orbital energies read from record       2200.2  Type=UKS/LOCAL(IBO)  
 Redundancy group numbers read from rec  2200.2  Type=UKS/BETA (state 1.1)

 IBBA/SVP energy=      0.000000000000

        UKS-SCF 
   -197.59473068
 **********************************************************************************************************************************
 Molpro calculation terminated
