
 Primary working directories    : /tmp/sb13343
 Secondary working directories  : /tmp/sb13343
 Wavefunction directory         : /panfs/panasas01/chem/sb13343/wfu/
 Main file repository           : /tmp/sb13343/

 SHA1      : b4a5b34a9e711420743f49e6833241d17c61fb3c
 NAME      : 2099.9.b4a5b34
 ARCHNAME  : linux/x86_64_openmp
 FC        : /cm/shared/languages/GCC-6.1/bin/gfortran
 BLASLIB   : -lblas
 id        : simonbennie

 Nodes     nprocs
 node32-027    1

 Using customized tuning parameters: mindgm=1; mindgv=20; mindgc=4; mindgr=1; noblas=0; minvec=7
 default implementation of scratch files=df  

 memory,500,m
 geomtyp=xyz
 nosym
 noorient
 geometry={
 C          0.00000        0.00000        0.00000
 C          1.54025       -0.00009       -0.00004
 C         -0.51333        1.45219       -0.00005
 C         -0.51349       -0.72611       -1.25756
 C         -0.51342       -0.72599        1.25765
 H         -1.60999        1.48489       -0.00002
 H         -1.61015       -0.74237       -1.28580
 H         -1.61008       -0.74225        1.28596
 H         -0.16312        1.99638        0.88591
 H         -0.16316        1.99630       -0.88608
 H         -0.16333       -0.23096       -2.17186
 H         -0.16339       -1.76551       -1.28580
 H         -0.16332       -1.76539        1.28596
 H         -0.16320       -0.23077        2.17189
 H          1.93652       -1.02316       -0.00001
 H          1.93658        0.51138       -0.88607
 H          1.93663        0.51146        0.88592
 }
 basis={ default,sto-3g }
 {uks,MM06,direct;wf,42,1,0}
 {ibba,bonds=1}

 Variables initialized (895), CPU time= 0.00 sec
 Commands  initialized (725), CPU time= 0.01 sec, 591 directives.
 Default parameters read. Elapsed time= 0.09 sec

 Checking input...
 Passed
1


                                         ***  PROGRAM SYSTEM MOLPRO  ***
                                       Copyright, TTI GmbH Stuttgart, 2015
                                    Version 2099.9 linked May 26 2017 16:03:21


 **********************************************************************************************************************************
 LABEL *                                                                                 
  64 bit serial version                                                                  DATE: 08-Jun-17          TIME: 22:08:28  
 **********************************************************************************************************************************

 SHA1:             b4a5b34a9e711420743f49e6833241d17c61fb3c
 **********************************************************************************************************************************
 SETTING GEOMTYP        =    XYZ

 Variable memory set to  500000000 words,  buffer space 

 ZSYMEL=NOSYM

 SETTING BASIS          =    STO-3G


 Recomputing integrals since basis changed


 Using spherical harmonics

 Library entry C      S STO-3G               selected for orbital group  1
 Library entry C      P STO-3G               selected for orbital group  1
 Library entry H      S STO-3G               selected for orbital group  2


 PROGRAM * SEWARD (Integral evaluation for generally contracted gaussian basis sets)     Author: Roland Lindh, 1990

 Geometry written to block  1 of record 700


 Point group  C1  



 ATOMIC COORDINATES

 NR  ATOM    CHARGE       X              Y              Z

   1  C       6.00    0.000000000    0.000000000    0.000000000
   2  C       6.00    2.910650663   -0.000170075   -0.000075589
   3  C       6.00   -0.970053112    2.744241381   -0.000094486
   4  C       6.00   -0.970355468   -1.372149036   -2.376443985
   5  C       6.00   -0.970223187   -1.371922269    2.376614061
   6  H       1.00   -3.042440163    2.806035425   -0.000037795
   7  H       1.00   -3.042742519   -1.402875983   -2.429809851
   8  H       1.00   -3.042610239   -1.402649216    2.430112207
   9  H       1.00   -0.308252125    3.772611441    1.674127271
  10  H       1.00   -0.308327714    3.772460262   -1.674448524
  11  H       1.00   -0.308648968   -0.436451146   -4.104220581
  12  H       1.00   -0.308762351   -3.336330370   -2.429809851
  13  H       1.00   -0.308630071   -3.336103603    2.430112207
  14  H       1.00   -0.308403304   -0.436092098    4.104277273
  15  H       1.00    3.659492435   -1.933492182   -0.000018897
  16  H       1.00    3.659605818    0.966368146   -1.674429627
  17  H       1.00    3.659700305    0.966519324    1.674146168

 Bond lengths in Bohr (Angstrom)

  1- 2  2.910650669   1- 3  2.910646630   1- 4  2.910647475   1- 5  2.910635350   2-15  2.073282028
       ( 1.540250003)       ( 1.540247866)       ( 1.540248313)       ( 1.540241896)       ( 1.097133601)

  2-16  2.073304464   2-17  2.073302258   3- 6  2.073308129   3- 9  2.073293037   3-10  2.073300754
       ( 1.097145474)       ( 1.097144306)       ( 1.097147413)       ( 1.097139427)       ( 1.097143510)

  4- 7  2.073301752   4-11  2.073306055   4-12  2.073297296   5- 8  2.073305161   5-13  2.073300706
       ( 1.097144038)       ( 1.097146316)       ( 1.097141681)       ( 1.097145842)       ( 1.097143485)

  5-14  2.073307464
       ( 1.097147061)

 Bond angles

  1- 2-15  111.17643746   1- 2-16  111.17582452   1- 2-17  111.17607088   1- 3- 6  111.17575783

  1- 3- 9  111.17644989   1- 3-10  111.17611121   1- 4- 7  111.17614317   1- 4-11  111.17631877

  1- 4-12  111.17675056   1- 5- 8  111.17663037   1- 5-13  111.17645588   1- 5-14  111.17672823

  2-1-3  109.47117711   2-1-4  109.47117360   2-1-5  109.47107360   3-1-4  109.47144919

  3- 1- 5  109.47121161   4- 1- 5  109.47123870   6- 3- 9  107.71338639   6- 3-10  107.71391335

  7- 4-11  107.71323113   7- 4-12  107.71354587   8- 5-13  107.71328790   8- 5-14  107.71342022

  9- 3-10  107.71420977  11- 4-12  107.71378459  13- 5-14  107.71321488  15- 2-16  107.71365571

 15- 2-17  107.71411853  16- 2-17  107.71372051

 NUCLEAR CHARGE:                   42
 NUMBER OF PRIMITIVE AOS:         111
 NUMBER OF SYMMETRY AOS:          111
 NUMBER OF CONTRACTIONS:           37   (  37A   )
 NUMBER OF CORE ORBITALS:           5   (   5A   )
 NUMBER OF VALENCE ORBITALS:       32   (  32A   )


 NUCLEAR REPULSION ENERGY  197.66618863


 Eigenvalues of metric

         1 0.202E+00 0.229E+00 0.229E+00 0.229E+00 0.312E+00 0.362E+00 0.362E+00 0.362E+00


 Contracted 2-electron integrals neglected if value below      1.0D-11
 AO integral compression algorithm  1   Integral accuracy      1.0D-11

     2.097 MB (compressed) written to integral file ( 90.5%)


 NUMBER OF SORTED TWO-ELECTRON INTEGRALS:     247456.     BUFFER LENGTH:  32768
 NUMBER OF SEGMENTS:   1  SEGMENT LENGTH:     247456      RECORD LENGTH: 524288

 Memory used in sort:       0.80 MW

 SORT1 READ      274857. AND WROTE      242287. INTEGRALS IN      1 RECORDS. CPU TIME:     0.00 SEC, REAL TIME:     0.01 SEC
 SORT2 READ      242287. AND WROTE      247456. INTEGRALS IN      8 RECORDS. CPU TIME:     0.02 SEC, REAL TIME:     0.02 SEC

 FILE SIZES:   FILE 1:    32.4 MBYTE,  FILE 4:     4.2 MBYTE,   TOTAL:     36.6 MBYTE

 OPERATOR DM      FOR CENTER  0  COORDINATES:    0.000000    0.000000    0.000000


 **********************************************************************************************************************************
 DATASETS  * FILE   NREC   LENGTH (MB)   RECORD NAMES
              1      19       31.36       500      610      700      900      950      970     1000      129      960     1100   
                                          VAR    BASINP    GEOM    SYMINP    ZMAT    AOBASIS   BASIS     P2S    ABASIS      S 
                                         1400     1410     1200     1210     1080     1600     1650     1300     1700   
                                           T        V       H0       H01     AOSYM     SMH    MOLCAS    ERIS     OPER   

 PROGRAMS   *        TOTAL       INT
 CPU TIMES  *         0.63      0.48
 REAL TIME  *         0.92 SEC
 DISK USED  *        37.15 MB      
 **********************************************************************************************************************************

 Density functional group MM06=M06X+M06C
 Functional: M06X(Automatically generated (new) M06X)                          Gradient terms: 2
 Functional: M06C(Automatically generated (new) M06C)                          Gradient terms: 2
 Use grid at  1800.2


 Exact exchange will be calculated, factor:  0.2700

 Functional: M06X                      Factor:  0.7300
 Functional: M06C                      Factor:  1.0000

 Generated new metagrid on record  1800.2 with target accuracy 1.0D-06 and 57016 points in CPU time    1.7
 Computed new grid on record 1800.1 in CPU time    1.9
   62217 words reserved for DFT integration

 PROGRAM * UKS-SCF (Unrestricted Kohn-Sham)     Authors: W. Meyer, H.-J. Werner, P.J. Knowles, 1993

 NUMBER OF ELECTRONS:      21+   21-    SPACE SYMMETRY=1    SPIN SYMMETRY: Singlet 
 CONVERGENCE THRESHOLDS:    1.00E-05 (Density)    1.00E-06 (Energy)
 MAX. NUMBER OF ITERATIONS:       60
 INTERPOLATION TYPE:            DIIS
 INTERPOLATION STEPS:              2 (START)      1 (STEP)
 LEVEL SHIFTS:                 -0.20 (ALPHA)  -0.20 (BETA) 



 Use fine grid record 1800.2 for energy threshold  1.0D-06
 Orbital guess generated from atomic densities. Full valence occupancy:   21

 Molecular orbital dump at record        2200.2

 Initial alpha occupation  21
 Initial beta  occupation  21

 ITERATION    DDIFF          GRAD             ENERGY        2-EL.EN.            DIPOLE MOMENTS         DIIS
    1      0.000D+00      0.000D+00      -189.06574270    582.423540   -0.00003    0.00009   -0.00000    0
    2      0.531D-01      0.189D-01      -189.37690214    564.718107   -0.00718   -0.01068    0.00000    1
    3      0.757D-02      0.336D-02      -189.38583156    567.091229   -0.00442   -0.00649   -0.00000    2
    4      0.691D-03      0.286D-03      -189.38594081    567.092588   -0.00399   -0.00590   -0.00000    3
    5      0.224D-03      0.689D-04      -189.38594836    567.087964   -0.00399   -0.00585   -0.00000    4
    6      0.268D-04      0.914D-05      -189.38594850    567.087912   -0.00400   -0.00587   -0.00000    4
    7      0.407D-05      0.119D-05      -189.38594850    567.088211   -0.00401   -0.00587   -0.00000    5
    8      0.818D-06      0.344D-06      -189.38594850    567.088240   -0.00401   -0.00587   -0.00000    5

 Final alpha occupancy:  21
 Final beta  occupancy:  21

 !UKS STATE 1.1 Energy               -189.385948501199
 Nuclear energy                       197.66618863
 One-electron energy                 -653.19747579
 Two-electron energy                  283.54411999
 Density functional                   -17.39878134     M06X=-21.54722840 M06C= -1.66930460
 Virial quotient                       -0.98962102
 !UKS STATE 1.1 Dipole moment          -0.00400503    -0.00586947    -0.00000040
 Dipole moment /Debye                  -0.01017909    -0.01491772    -0.00000101

 Orbital energies for positive spin:

         1.1          2.1          3.1          4.1          5.1          6.1          7.1          8.1          9.1         10.1
     -9.692195    -9.670204    -9.670068    -9.670058    -9.669724    -0.699058    -0.564636    -0.564628    -0.564614    -0.414990

        11.1         12.1         13.1         14.1         15.1         16.1         17.1         18.1         19.1         20.1
     -0.335164    -0.334886    -0.334687    -0.285636    -0.285380    -0.248521    -0.248102    -0.247963    -0.196266    -0.196041

        21.1         22.1         23.1
     -0.195636     0.464896     0.466763

 Orbital energies for negative spin:

         1.1          2.1          3.1          4.1          5.1          6.1          7.1          8.1          9.1         10.1
     -9.692195    -9.670204    -9.670068    -9.670058    -9.669724    -0.699058    -0.564636    -0.564628    -0.564614    -0.414990

        11.1         12.1         13.1         14.1         15.1         16.1         17.1         18.1         19.1         20.1
     -0.335164    -0.334886    -0.334687    -0.285636    -0.285380    -0.248521    -0.248102    -0.247963    -0.196266    -0.196041

        21.1         22.1         23.1
     -0.195636     0.464896     0.466763

 HOMO     21.1    -0.195636 =      -5.3235eV
 LUMO     22.1     0.464896 =      12.6505eV
 LUMO-HOMO         0.660532 =      17.9740eV

 EXPECTATION VALUE OF S**2:             0.00000000

 Natural orbitals saved to record    2200.2 (Orbital set 3)

 Orbital spaces for UNO-CAS (Min. occupation: 0.020  Max. occupation: 1.980):

 Closed:       21
 Active:        0


 **********************************************************************************************************************************
 DATASETS  * FILE   NREC   LENGTH (MB)   RECORD NAMES
              1      20       33.19       500      610      700      900      950      970     1000      129      960     1100   
                                          VAR    BASINP    GEOM    SYMINP    ZMAT    AOBASIS   BASIS     P2S    ABASIS      S 
                                         1400     1410     1200     1210     1080     1600     1650     1300     1700     1800   
                                           T        V       H0       H01     AOSYM     SMH    MOLCAS    ERIS     OPER     GRID   

              2       5        3.10       700     1000      520     1800     2200   
                                         GEOM     BASIS   MCVARS    GRID      UKS  

 PROGRAMS   *        TOTAL       UKS       INT
 CPU TIMES  *        15.60     14.97      0.48
 REAL TIME  *        16.01 SEC
 DISK USED  *        37.15 MB      
 **********************************************************************************************************************************


 PROGRAM * Intrinsic Basis Bonding Analysis (IBBA)          Author: G. Knizia

 Molecular orbitals read from record     2200.2  Type=UKS/ALPHA (state 1.1)
 Fock matrix read from record            2200.2  Type=UKS/TOTAL (state 1.1)
 Orbital energies read from record       2200.2  Type=UKS/ALPHA (state 1.1)
 Density matrix read from record         2200.2  Type=UKS/CHARGE (state 1.1)

 Number of core orbitals:           5 (   5 )
 Number of closed-shell orbitals:  16 (  16 )

 Basis set MINAO-AUTO-PP generated.      Number of basis functions:   37 

 Polarized AO type:                A = (O Ot + (1-O)(1-Ot)) P12
 Orthogonalization method:         Symmetric (Loewdin)
 Localization functional:          L = sum[A,i] <i|n_A|i>^4 -> max

 Localization group 1:  21 orbitals, occupancy  2.000
 Iterative localization: IB/PM,    7 iter; Final gradient 0.24E-08

 Bond order analysis:       [THRPRINT= 0.020]

   CEN ATOM   CEN ATOM     WIBERG.BO      RENORM.BO
     1   C  -   3   C       0.994578       0.997600
     1   C  -   2   C       0.994430       0.997525
     1   C  -   5   C       0.994365       0.997472
     1   C  -   4   C       0.994363       0.997471

     2   C  -   1   C       0.994430       0.997525
     2   C  -  16   H       0.969594       0.985859
     2   C  -  17   H       0.969594       0.985859
     2   C  -  15   H       0.969463       0.986083

     3   C  -   1   C       0.994578       0.997600
     3   C  -  10   H       0.969520       0.985859
     3   C  -   9   H       0.969520       0.985859
     3   C  -   6   H       0.969458       0.985987

     4   C  -   1   C       0.994363       0.997471
     4   C  -  12   H       0.969472       0.985939
     4   C  -  11   H       0.969460       0.985850
     4   C  -   7   H       0.969418       0.985979

     5   C  -   1   C       0.994365       0.997472
     5   C  -  13   H       0.969471       0.985938
     5   C  -  14   H       0.969460       0.985850
     5   C  -   8   H       0.969418       0.985979

     6   H  -   3   C       0.969458       0.985987

     7   H  -   4   C       0.969418       0.985979

     8   H  -   5   C       0.969418       0.985979

     9   H  -   3   C       0.969520       0.985859

    10   H  -   3   C       0.969520       0.985859

    11   H  -   4   C       0.969460       0.985850

    12   H  -   4   C       0.969472       0.985939

    13   H  -   5   C       0.969471       0.985938

    14   H  -   5   C       0.969460       0.985850

    15   H  -   2   C       0.969463       0.986083

    16   H  -   2   C       0.969594       0.985859

    17   H  -   2   C       0.969594       0.985859


 Valency analysis:

   CEN ATOM   TOT.VALENCE
     1   C       3.991451
     2   C       3.945342
     3   C       3.945310
     4   C       3.945150
     5   C       3.945150
     6   H       0.987547
     7   H       0.987529
     8   H       0.987529
     9   H       0.987694
    10   H       0.987694
    11   H       0.987664
    12   H       0.987612
    13   H       0.987612
    14   H       0.987664
    15   H       0.987474
    16   H       0.987734
    17   H       0.987734

 Total charge composition:

   CEN ATOM         s          p       ELECTRONS ->P.CHARGE
     1   C       2.91543    3.07182      5.98725    0.01275
     2   C       2.97166    3.36485      6.33651   -0.33651
     3   C       2.97173    3.36522      6.33694   -0.33694
     4   C       2.97166    3.36548      6.33713   -0.33713
     5   C       2.97165    3.36548      6.33713   -0.33713
     6   H       0.88841                 0.88841    0.11159
     7   H       0.88833                 0.88833    0.11167
     8   H       0.88833                 0.88833    0.11167
     9   H       0.88907                 0.88907    0.11093
    10   H       0.88907                 0.88907    0.11093
    11   H       0.88893                 0.88893    0.11107
    12   H       0.88870                 0.88870    0.11130
    13   H       0.88870                 0.88870    0.11130
    14   H       0.88893                 0.88893    0.11107
    15   H       0.88808                 0.88808    0.11192
    16   H       0.88925                 0.88925    0.11075
    17   H       0.88925                 0.88925    0.11075

 Total charge composition, AO contributions:

   CEN ATOM SHL      SPHERICAL COMPONENTS
     1   C  1s       1.99400
     1   C  2s       0.92144
     1   C  2p       1.02420    1.02384    1.02378

     2   C  1s       1.99330
     2   C  2s       0.97836
     2   C  2p       1.05448    1.15565    1.15471

     3   C  1s       1.99330
     3   C  2s       0.97843
     3   C  2p       1.14453    1.06557    1.15512

     4   C  1s       1.99330
     4   C  2s       0.97836
     4   C  2p       1.14455    1.13304    1.08789

     5   C  1s       1.99330
     5   C  2s       0.97836
     5   C  2p       1.14455    1.13305    1.08788

     6   H  1s       0.88841

     7   H  1s       0.88833

     8   H  1s       0.88833

     9   H  1s       0.88907

    10   H  1s       0.88907

    11   H  1s       0.88893

    12   H  1s       0.88870

    13   H  1s       0.88870

    14   H  1s       0.88893

    15   H  1s       0.88808

    16   H  1s       0.88925

    17   H  1s       0.88925

 Summary of localized orbital composition:   [THRPRINT= 0.020]

   ORB  GRP  ORB.ENERGY      CENTERS/CHARGES
     1   1    -9.597466      C  1   2.000
     2   1    -9.564373      C  2   2.000
     3   1    -9.564211      C  4   2.000
     4   1    -9.564210      C  5   2.000
     5   1    -9.564191      C  3   2.000
     6   1    -0.420074      C  2   0.992   C  1   0.985   (other: 0.023)
     7   1    -0.419975      C  3   0.992   C  1   0.985   (other: 0.023)
     8   1    -0.419710      C  5   0.992   C  1   0.985   (other: 0.023)
     9   1    -0.419706      C  4   0.992   C  1   0.985   (other: 0.023)
    10   1    -0.380262      C  2   1.111   H 15   0.881
    11   1    -0.379799      C  4   1.111   H 12   0.882
    12   1    -0.379797      C  5   1.111   H 13   0.882
    13   1    -0.379774      C  4   1.111   H  7   0.881
    14   1    -0.379774      C  5   1.111   H  8   0.881
    15   1    -0.379681      C  3   1.111   H  6   0.881
    16   1    -0.379315      C  4   1.111   H 11   0.882
    17   1    -0.379314      C  5   1.111   H 14   0.882
    18   1    -0.379246      C  3   1.110   H  9   0.882
    19   1    -0.379244      C  3   1.110   H 10   0.882
    20   1    -0.379157      C  2   1.110   H 17   0.882
    21   1    -0.379156      C  2   1.110   H 16   0.882

 Localized orbitals saved to record      2200.2  (orbital set 4)


 **********************************************************************************************************************************
 DATASETS  * FILE   NREC   LENGTH (MB)   RECORD NAMES
              1      20       33.19       500      610      700      900      950      970     1000      129      960     1100   
                                          VAR    BASINP    GEOM    SYMINP    ZMAT    AOBASIS   BASIS     P2S    ABASIS      S 
                                         1400     1410     1200     1210     1080     1600     1650     1300     1700     1800   
                                           T        V       H0       H01     AOSYM     SMH    MOLCAS    ERIS     OPER     GRID   

              2       5        3.11       700     1000      520     1800     2200   
                                         GEOM     BASIS   MCVARS    GRID      UKS  

 PROGRAMS   *        TOTAL      IBBA       UKS       INT
 CPU TIMES  *        15.63      0.03     14.97      0.48
 REAL TIME  *        16.13 SEC
 DISK USED  *        37.15 MB      
 **********************************************************************************************************************************
 Molecular orbitals read from record     2200.2  Type=UKS/LOCAL(IBO)  
 Occupation numbers read from record     2200.2  Type=UKS/LOCAL(IBO)  
 Orbital energies read from record       2200.2  Type=UKS/LOCAL(IBO)  
 Redundancy group numbers read from rec  2200.2  Type=UKS/BETA (state 1.1)

 IBBA/STO-3G energy=      0.000000000000

        UKS-SCF 
   -189.38594850
 **********************************************************************************************************************************
 Molpro calculation terminated
