
 Primary working directories    : /local
 Secondary working directories  : /local
 Wavefunction directory         : /local/
 Main file repository           : /local/

 SHA1      : b4a5b34a9e711420743f49e6833241d17c61fb3c
 NAME      : 2099.9.b4a5b34
 ARCHNAME  : linux/x86_64_openmp
 FC        : /cm/shared/languages/GCC-6.1/bin/gfortran
 BLASLIB   : -lblas
 id        : simonbennie

 Nodes     nprocs
 node32-006    1

 Using customized tuning parameters: mindgm=1; mindgv=20; mindgc=4; mindgr=1; noblas=0; minvec=7
 default implementation of scratch files=df  

 memory,500,m
 geomtyp=xyz
 nosym
 noorient
 geometry={
 C         -1.53233        0.02247        0.00000
 C         -0.00192        0.01421        0.00000
 O          0.37239        1.40356        0.00000
 H          1.34248        1.44036        0.00000
 H         -1.92991       -0.99819        0.00000
 H         -1.90797        0.54382       -0.88653
 H         -1.90797        0.54382        0.88653
 C          0.54303       -0.66466       -1.26580
 C          0.54303       -0.66466        1.26580
 H          0.17836       -0.14752       -2.15943
 H          0.17836       -0.14752        2.15943
 H          0.23752       -1.71600       -1.32280
 H          0.23752       -1.71600        1.32280
 H          1.64084       -0.63767       -1.28032
 H          1.64084       -0.63767        1.28032
 }
 basis={ default,SV(P) }
 {ks,M05,direct;wf,42,1,0}
 {ibba,bonds=1}

 Variables initialized (895), CPU time= 0.00 sec
 Commands  initialized (725), CPU time= 0.01 sec, 591 directives.
 Default parameters read. Elapsed time= 0.07 sec

 Checking input...
 Passed
1


                                         ***  PROGRAM SYSTEM MOLPRO  ***
                                       Copyright, TTI GmbH Stuttgart, 2015
                                    Version 2099.9 linked May 26 2017 16:03:21


 **********************************************************************************************************************************
 LABEL *                                                                                 
  64 bit serial version                                                                  DATE: 12-Jun-17          TIME: 20:32:49  
 **********************************************************************************************************************************

 SHA1:             b4a5b34a9e711420743f49e6833241d17c61fb3c
 **********************************************************************************************************************************
 SETTING GEOMTYP        =    XYZ

 Variable memory set to  500000000 words,  buffer space 

 ZSYMEL=NOSYM

 SETTING BASIS          =    SV(P)


 Recomputing integrals since basis changed


 Using spherical harmonics

 Library entry C      S def2-SV(P)           selected for orbital group  1
 Library entry C      P def2-SV(P)           selected for orbital group  1
 Library entry C      D def2-SV(P)           selected for orbital group  1
 Library entry O      S def2-SV(P)           selected for orbital group  2
 Library entry O      P def2-SV(P)           selected for orbital group  2
 Library entry O      D def2-SV(P)           selected for orbital group  2
 Library entry H      S def2-SV(P)           selected for orbital group  3


 PROGRAM * SEWARD (Integral evaluation for generally contracted gaussian basis sets)     Author: Roland Lindh, 1990

 Geometry written to block  1 of record 700


 Point group  C1  



 ATOMIC COORDINATES

 NR  ATOM    CHARGE       X              Y              Z

   1  C       6.00   -2.895684032    0.042462146    0.000000000
   2  C       6.00   -0.003628274    0.026853008    0.000000000
   3  O       8.00    0.703715112    2.652343999    0.000000000
   4  H       1.00    2.536919528    2.721885921    0.000000000
   5  H       1.00   -3.647001345   -1.886305720    0.000000000
   6  H       1.00   -3.605540754    1.027670861   -1.675298901
   7  H       1.00   -3.605540754    1.027670861    1.675298901
   8  C       6.00    1.026177977   -1.256025366   -2.392015328
   9  C       6.00    1.026177977   -1.256025366    2.392015328
  10  H       1.00    0.337051552   -0.278772398   -4.080731285
  11  H       1.00    0.337051552   -0.278772398    4.080731285
  12  H       1.00    0.448847749   -3.242770030   -2.499729718
  13  H       1.00    0.448847749   -3.242770030    2.499729718
  14  H       1.00    3.100738214   -1.205021658   -2.419454152
  15  H       1.00    3.100738214   -1.205021658    2.419454152

 Bond lengths in Bohr (Angstrom)

 1-2  2.892097881  1-5  2.069933136  1-6  2.069096224  1-7  2.069096224  2-3  2.719106031
     ( 1.530432290)     ( 1.095361444)     ( 1.094918569)     ( 1.094918569)     ( 1.438888946)

  2- 8  2.903104402   2- 9  2.903104402   3- 4  1.834522965   8-10  2.069222119   8-12  2.071730422
       ( 1.536256691)       ( 1.536256691)       ( 0.970787746)       ( 1.094985190)       ( 1.096312526)

  8-14  2.075368508   9-11  2.069222119   9-13  2.071730422   9-15  2.075368508
       ( 1.098237719)       ( 1.094985190)       ( 1.096312526)       ( 1.098237719)

 Bond angles

  1-2-3  104.76902697   1-2-8  110.92255387   1-2-9  110.92255387   2-1-5  110.97328220

  2- 1- 6  110.22090701   2- 1- 7  110.22090701   2- 3- 4  107.25071562   2- 8-10  110.21836376

  2- 8-12  111.57747468   2- 8-14  110.77023896   2- 9-11  110.21836376   2- 9-13  111.57747468

  2- 9-15  110.77023896   3- 2- 8  109.53648747   3- 2- 9  109.53648747   5- 1- 6  108.61190457

  5- 1- 7  108.61190457   6- 1- 7  108.12870271   8- 2- 9  110.96453384  10- 8-12  108.52192632

 10- 8-14  108.08997829  11- 9-13  108.52192632  11- 9-15  108.08997829  12- 8-14  107.54424578

 13- 9-15  107.54424578

 NUCLEAR CHARGE:                   42
 NUMBER OF PRIMITIVE AOS:         165
 NUMBER OF SYMMETRY AOS:          160
 NUMBER OF CONTRACTIONS:           90   (  90A   )
 NUMBER OF CORE ORBITALS:           5   (   5A   )
 NUMBER OF VALENCE ORBITALS:       30   (  30A   )


 NUCLEAR REPULSION ENERGY  198.77359127


 Eigenvalues of metric

         1 0.179E-02 0.600E-02 0.603E-02 0.144E-01 0.286E-01 0.297E-01 0.300E-01 0.361E-01


 Contracted 2-electron integrals neglected if value below      1.0D-11
 AO integral compression algorithm  1   Integral accuracy      1.0D-11

     37.487 MB (compressed) written to integral file ( 49.6%)


 NUMBER OF SORTED TWO-ELECTRON INTEGRALS:    8386560.     BUFFER LENGTH:  32768
 NUMBER OF SEGMENTS:   1  SEGMENT LENGTH:    8386560      RECORD LENGTH: 524288

 Memory used in sort:       8.94 MW

 SORT1 READ     9478508. AND WROTE     7931434. INTEGRALS IN     23 RECORDS. CPU TIME:     0.12 SEC, REAL TIME:     0.24 SEC
 SORT2 READ     7931434. AND WROTE     8386560. INTEGRALS IN    143 RECORDS. CPU TIME:     0.25 SEC, REAL TIME:     0.31 SEC

 FILE SIZES:   FILE 1:    68.0 MBYTE,  FILE 4:    96.5 MBYTE,   TOTAL:    164.5 MBYTE

 OPERATOR DM      FOR CENTER  0  COORDINATES:    0.000000    0.000000    0.000000


 **********************************************************************************************************************************
 DATASETS  * FILE   NREC   LENGTH (MB)   RECORD NAMES
              1      19       63.39       500      610      700      900      950      970     1000      129      960     1100   
                                          VAR    BASINP    GEOM    SYMINP    ZMAT    AOBASIS   BASIS     P2S    ABASIS      S 
                                         1400     1410     1200     1210     1080     1600     1650     1300     1700   
                                           T        V       H0       H01     AOSYM     SMH    MOLCAS    ERIS     OPER   

 PROGRAMS   *        TOTAL       INT
 CPU TIMES  *         1.87      1.73
 REAL TIME  *         3.21 SEC
 DISK USED  *       165.03 MB      
 **********************************************************************************************************************************

 Density functional group M05=XC-M05
 Functional: XC-M05(via MFM 1.6)                                               Gradient terms: 1
 Use grid at  1800.2


 Exact exchange will be calculated, factor:  0.2800

 Functional: XC-M05                    Factor:  1.0000

 Generated new metagrid on record  1800.2 with target accuracy 1.0D-06 and 53396 points in CPU time    1.7
 Computed new grid on record 1800.1 in CPU time    1.9
   75909 words reserved for DFT integration

 PROGRAM * RKS-SCF (Restricted closed shell Kohn-Sham)     Authors: W. Meyer, H.-J. Werner, P.J. Knowles, 1993

 NUMBER OF ELECTRONS:      21+   21-    SPACE SYMMETRY=1    SPIN SYMMETRY: Singlet 
 CONVERGENCE THRESHOLDS:    1.00E-05 (Density)    1.00E-06 (Energy)
 MAX. NUMBER OF ITERATIONS:       60
 INTERPOLATION TYPE:            DIIS
 INTERPOLATION STEPS:              2 (START)      1 (STEP)
 LEVEL SHIFTS:                  0.00 (CLOSED)  0.00 (OPEN) 



 Use fine grid record 1800.2 for energy threshold  1.0D-06
 Orbital guess generated from atomic densities. Full valence occupancy:   21

 Molecular orbital dump at record        2100.2

 Initial occupancy:  21

 ITERATION    DDIFF          GRAD             ENERGY        2-EL.EN.            DIPOLE MOMENTS         DIIS   ORB.
    1      0.000D+00      0.000D+00      -233.09901907    616.961288    0.73805   -0.88771    0.00000    0    start
    2      0.000D+00      0.112D-01      -233.04631873    588.112778   -0.00392    0.02060    0.00000    1    diag
    3      0.279D-01      0.131D-01      -233.28780255    603.892406    0.39910   -0.55105    0.00000    2    diag
    4      0.161D-01      0.105D-02      -233.28887699    603.593105    0.38518   -0.46031    0.00000    3    diag
    5      0.120D-02      0.446D-03      -233.28910641    603.610863    0.39010   -0.50102    0.00000    4    diag
    6      0.483D-03      0.964D-04      -233.28911628    603.684024    0.39040   -0.49563    0.00000    5    diag
    7      0.123D-03      0.415D-04      -233.28911859    603.666416    0.39025   -0.49526    0.00000    6    diag
    8      0.402D-04      0.559D-05      -233.28911863    603.668364    0.39042   -0.49589    0.00000    7    diag
    9      0.650D-05      0.797D-06      -233.28911863    603.667621    0.39033   -0.49567    0.00000    0    orth

 Final occupancy:  21

 !RKS STATE 1.1 Energy               -233.289118626788
 Nuclear energy                       198.77359127
 One-electron energy                 -709.14630169
 Two-electron energy                  301.83381055
 SCF exchange energy                  -32.48501779     Factor= 0.2800
 Density functional                   -24.75021876     XC-M05=-24.75021876
 Virial quotient                       -1.00848017
 !RKS STATE 1.1 Dipole moment           0.39032706    -0.49566672     0.00000000
 Dipole moment /Debye                   0.99204746    -1.25977663     0.00000000

 Orbital energies:

         1.1          2.1          3.1          4.1          5.1          6.1          7.1          8.1          9.1         10.1
    -19.159660   -10.277254   -10.200524   -10.200507   -10.194545    -1.026809    -0.801323    -0.703874    -0.702482    -0.578375

        11.1         12.1         13.1         14.1         15.1         16.1         17.1         18.1         19.1         20.1
     -0.500083    -0.462114    -0.459599    -0.421095    -0.407829    -0.389856    -0.376706    -0.365053    -0.358590    -0.328735

        21.1         22.1         23.1
     -0.276997     0.043875     0.094682

 HOMO     21.1    -0.276997 =      -7.5375eV
 LUMO     22.1     0.043875 =       1.1939eV
 LUMO-HOMO         0.320872 =       8.7314eV


 **********************************************************************************************************************************
 DATASETS  * FILE   NREC   LENGTH (MB)   RECORD NAMES
              1      20       65.10       500      610      700      900      950      970     1000      129      960     1100   
                                          VAR    BASINP    GEOM    SYMINP    ZMAT    AOBASIS   BASIS     P2S    ABASIS      S 
                                         1400     1410     1200     1210     1080     1600     1650     1300     1700     1800   
                                           T        V       H0       H01     AOSYM     SMH    MOLCAS    ERIS     OPER     GRID   

              2       5        3.17       700     1000      520     1800     2100   
                                         GEOM     BASIS   MCVARS    GRID      RKS  

 PROGRAMS   *        TOTAL        KS       INT
 CPU TIMES  *        24.33     22.46      1.73
 REAL TIME  *        26.60 SEC
 DISK USED  *       165.03 MB      
 **********************************************************************************************************************************


 PROGRAM * Intrinsic Basis Bonding Analysis (IBBA)          Author: G. Knizia

 Molecular orbitals read from record     2100.2  Type=RKS/CANONICAL (state 1.1)
 Fock matrix read from record            2100.2  Type=RKS/TOTAL (state 1.1)
 Orbital energies read from record       2100.2  Type=RKS/CANONICAL (state 1.1)
 Density matrix read from record         2100.2  Type=RKS/CHARGE (state 1.1)

 Number of core orbitals:           5 (   5 )
 Number of closed-shell orbitals:  16 (  16 )

 Basis set MINAO-AUTO-PP generated.      Number of basis functions:   35 

 Polarized AO type:                A = (O Ot + (1-O)(1-Ot)) P12
 Orthogonalization method:         Symmetric (Loewdin)
 Localization functional:          L = sum[A,i] <i|n_A|i>^4 -> max

 Localization group 1:  21 orbitals, occupancy  2.000
 Iterative localization: IB/PM,    7 iter; Final gradient 0.21E-08

 Bond order analysis:       [THRPRINT= 0.020]

   CEN ATOM   CEN ATOM     WIBERG.BO      RENORM.BO
     1   C  -   2   C       0.994564       0.992985
     1   C  -   5   H       0.966766       0.987712
     1   C  -   6   H       0.962285       0.982381
     1   C  -   7   H       0.962285       0.982381

     2   C  -   1   C       0.994564       0.992985
     2   C  -   9   C       0.993635       0.975061
     2   C  -   8   C       0.993635       0.975061
     2   C  -   3   O       0.937694       0.954467

     3   O  -   2   C       0.937694       0.954467
     3   O  -   4   H       0.876316       0.977505
     3   O  -   8   C       0.027357       0.014009
     3   O  -   9   C       0.027357       0.014009

     4   H  -   3   O       0.876316       0.977505

     5   H  -   1   C       0.966766       0.987712

     6   H  -   1   C       0.962285       0.982381

     7   H  -   1   C       0.962285       0.982381

     8   C  -   2   C       0.993635       0.975061
     8   C  -  14   H       0.965935       0.982992
     8   C  -  12   H       0.962583       0.982630
     8   C  -  10   H       0.962452       0.982078
     8   C  -   3   O       0.027357       0.014009

     9   C  -   2   C       0.993635       0.975061
     9   C  -  15   H       0.965935       0.982992
     9   C  -  13   H       0.962583       0.982630
     9   C  -  11   H       0.962452       0.982078
     9   C  -   3   O       0.027357       0.014009

    10   H  -   8   C       0.962452       0.982078

    11   H  -   9   C       0.962452       0.982078

    12   H  -   8   C       0.962583       0.982630

    13   H  -   9   C       0.962583       0.982630

    14   H  -   8   C       0.965935       0.982992

    15   H  -   9   C       0.965935       0.982992


 Valency analysis:

   CEN ATOM   TOT.VALENCE
     1   C       3.944298
     2   C       3.930135
     3   O       1.933033
     4   H       0.894977
     5   H       0.984647
     6   H       0.982436
     7   H       0.982436
     8   C       3.946147
     9   C       3.946147
    10   H       0.982307
    11   H       0.982307
    12   H       0.983765
    13   H       0.983765
    14   H       0.986034
    15   H       0.986034

 Total charge composition:

   CEN ATOM         s          p       ELECTRONS ->P.CHARGE
     1   C       3.02653    3.35575      6.38228   -0.38228
     2   C       2.92451    2.81642      5.74093    0.25907
     3   O       3.63564    4.91403      8.54967   -0.54967
     4   H       0.67593                 0.67593    0.32407
     5   H       0.87609                 0.87609    0.12391
     6   H       0.86747                 0.86747    0.13253
     7   H       0.86747                 0.86747    0.13253
     8   C       3.03301    3.36568      6.39869   -0.39869
     9   C       3.03301    3.36568      6.39869   -0.39869
    10   H       0.86698                 0.86698    0.13302
    11   H       0.86698                 0.86698    0.13302
    12   H       0.87258                 0.87258    0.12742
    13   H       0.87258                 0.87258    0.12742
    14   H       0.88182                 0.88182    0.11818
    15   H       0.88182                 0.88182    0.11818

 Total charge composition, AO contributions:

   CEN ATOM SHL      SPHERICAL COMPONENTS
     1   C  1s       1.99088
     1   C  2s       1.03565
     1   C  2p       1.04058    1.15193    1.16323

     2   C  1s       1.99249
     2   C  2s       0.93202
     2   C  2p       1.01357    0.79050    1.01235

     3   O  1s       1.99708
     3   O  2s       1.63856
     3   O  2p       1.46284    1.49479    1.95640

     4   H  1s       0.67593

     5   H  1s       0.87609

     6   H  1s       0.86747

     7   H  1s       0.86747

     8   C  1s       1.99099
     8   C  2s       1.04202
     8   C  2p       1.13576    1.13664    1.09328

     9   C  1s       1.99099
     9   C  2s       1.04202
     9   C  2p       1.13576    1.13664    1.09328

    10   H  1s       0.86698

    11   H  1s       0.86698

    12   H  1s       0.87258

    13   H  1s       0.87258

    14   H  1s       0.88182

    15   H  1s       0.88182

 Summary of localized orbital composition:   [THRPRINT= 0.020]

   ORB  GRP  ORB.ENERGY      CENTERS/CHARGES
     1   1   -19.004082      O  3   2.000
     2   1   -10.185315      C  2   2.000
     3   1   -10.085636      C  8   2.000
     4   1   -10.085636      C  9   2.000
     5   1   -10.078865      C  1   2.000
     6   1    -0.773674      O  3   1.326   H  4   0.665
     7   1    -0.734662      O  3   1.282   C  2   0.701
     8   1    -0.589384      C  8   1.009   C  2   0.976
     9   1    -0.589384      C  9   1.009   C  2   0.976
    10   1    -0.588498      C  1   0.990   C  2   0.987   (other: 0.024)
    11   1    -0.569330      O  3   1.982
    12   1    -0.516116      C  9   1.123   H 13   0.863
    13   1    -0.516116      C  8   1.123   H 12   0.863
    14   1    -0.514896      C  9   1.114   H 15   0.875
    15   1    -0.514896      C  8   1.114   H 14   0.875
    16   1    -0.512070      C  1   1.118   H  5   0.869
    17   1    -0.509127      C  8   1.131   H 10   0.859
    18   1    -0.509127      C  9   1.131   H 11   0.859
    19   1    -0.503138      C  1   1.130   H  6   0.860
    20   1    -0.503138      C  1   1.130   H  7   0.860
    21   1    -0.308916      O  3   1.956   (other: 0.044)

 Localized orbitals saved to record      2100.2  (orbital set 2)


 **********************************************************************************************************************************
 DATASETS  * FILE   NREC   LENGTH (MB)   RECORD NAMES
              1      20       65.10       500      610      700      900      950      970     1000      129      960     1100   
                                          VAR    BASINP    GEOM    SYMINP    ZMAT    AOBASIS   BASIS     P2S    ABASIS      S 
                                         1400     1410     1200     1210     1080     1600     1650     1300     1700     1800   
                                           T        V       H0       H01     AOSYM     SMH    MOLCAS    ERIS     OPER     GRID   

              2       5        3.24       700     1000      520     1800     2100   
                                         GEOM     BASIS   MCVARS    GRID      RKS  

 PROGRAMS   *        TOTAL      IBBA        KS       INT
 CPU TIMES  *        24.37      0.04     22.46      1.73
 REAL TIME  *        26.76 SEC
 DISK USED  *       165.03 MB      
 **********************************************************************************************************************************
 Molecular orbitals read from record     2100.2  Type=RKS/LOCAL(IBO)  
 Occupation numbers read from record     2100.2  Type=RKS/LOCAL(IBO)  
 Orbital energies read from record       2100.2  Type=RKS/LOCAL(IBO)  
 Redundancy group numbers read from rec  2100.2  Type=RKS/LOCAL(IBO)  

 IBBA/SV(P) energy=      0.000000000000

        KS-SCF  
   -233.28911863
 **********************************************************************************************************************************
 Molpro calculation terminated
