
 Primary working directories    : /tmp/sb13343
 Secondary working directories  : /tmp/sb13343
 Wavefunction directory         : /panfs/panasas01/chem/sb13343/wfu/
 Main file repository           : /tmp/sb13343/

 SHA1      : b4a5b34a9e711420743f49e6833241d17c61fb3c
 NAME      : 2099.9.b4a5b34
 ARCHNAME  : linux/x86_64_openmp
 FC        : /cm/shared/languages/GCC-6.1/bin/gfortran
 BLASLIB   : -lblas
 id        : simonbennie

 Nodes     nprocs
 node32-007    1

 Using customized tuning parameters: mindgm=1; mindgv=20; mindgc=4; mindgr=1; noblas=0; minvec=7
 default implementation of scratch files=df  

 memory,500,m
 geomtyp=xyz
 nosym
 noorient
 geometry={
 C          0.00000        0.00000        0.00000
 C          0.00000        0.00000        1.53307
 O          1.40344        0.00000        1.86307
 C          1.76314        0.00000        3.22887
 H         -1.02289        0.00000       -0.39176
 H          0.51995       -0.88625       -0.37815
 H          0.51995        0.88625       -0.37815
 H          2.85677        0.00000        3.25413
 H          1.40708       -0.89217        3.76475
 H          1.40708        0.89217        3.76475
 C         -0.69252       -1.26694        2.06222
 C         -0.69252        1.26694        2.06222
 H         -0.15366       -2.16088        1.72982
 H         -0.15366        2.16088        1.72982
 H         -1.72011       -1.32515        1.68649
 H         -1.72011        1.32515        1.68649
 H         -0.74365       -1.28188        3.15638
 H         -0.74365        1.28188        3.15638
 }
 basis={ default,svp }
 {ks,BECKE,direct;wf,50,1,0}
 {ibba,bonds=1}

 Variables initialized (895), CPU time= 0.00 sec
 Commands  initialized (725), CPU time= 0.02 sec, 591 directives.
 Default parameters read. Elapsed time= 0.07 sec

 Checking input...
 Passed
1


                                         ***  PROGRAM SYSTEM MOLPRO  ***
                                       Copyright, TTI GmbH Stuttgart, 2015
                                    Version 2099.9 linked May 26 2017 16:03:21


 **********************************************************************************************************************************
 LABEL *                                                                                 
  64 bit serial version                                                                  DATE: 09-Jun-17          TIME: 01:51:57  
 **********************************************************************************************************************************

 SHA1:             b4a5b34a9e711420743f49e6833241d17c61fb3c
 **********************************************************************************************************************************
 SETTING GEOMTYP        =    XYZ

 Variable memory set to  500000000 words,  buffer space 

 ZSYMEL=NOSYM

 SETTING BASIS          =    SVP


 Recomputing integrals since basis changed


 Using spherical harmonics

 Library entry C      S def2-SVP             selected for orbital group  1
 Library entry C      P def2-SVP             selected for orbital group  1
 Library entry C      D def2-SVP             selected for orbital group  1
 Library entry O      S def2-SVP             selected for orbital group  2
 Library entry O      P def2-SVP             selected for orbital group  2
 Library entry O      D def2-SVP             selected for orbital group  2
 Library entry H      S def2-SVP             selected for orbital group  4
 Library entry H      P def2-SVP             selected for orbital group  4


 PROGRAM * SEWARD (Integral evaluation for generally contracted gaussian basis sets)     Author: Roland Lindh, 1990

 Geometry written to block  1 of record 700


 Point group  C1  



 ATOMIC COORDINATES

 NR  ATOM    CHARGE       X              Y              Z

   1  C       6.00    0.000000000    0.000000000    0.000000000
   2  C       6.00    0.000000000    0.000000000    2.897082430
   3  O       8.00    2.652117232    0.000000000    3.520692051
   4  C       6.00    3.331851719    0.000000000    6.101679992
   5  H       1.00   -1.932981956    0.000000000   -0.740319107
   6  H       1.00    0.982563098   -1.674769778   -0.714599934
   7  H       1.00    0.982563098    1.674769778   -0.714599934
   8  H       1.00    5.398512901    0.000000000    6.149414474
   9  H       1.00    2.658995835   -1.685956957    7.114346427
  10  H       1.00    2.658995835    1.685956957    7.114346427
  11  C       6.00   -1.308673136   -2.394169616    3.897031009
  12  C       6.00   -1.308673136    2.394169616    3.897031009
  13  H       1.00   -0.290375316   -4.083471388    3.268886045
  14  H       1.00   -0.290375316    4.083471388    3.268886045
  15  H       1.00   -3.250536804   -2.504170574    3.187004212
  16  H       1.00   -3.250536804    2.504170574    3.187004212
  17  H       1.00   -1.405294833   -2.422402125    5.964693745
  18  H       1.00   -1.405294833    2.422402125    5.964693745

 Bond lengths in Bohr (Angstrom)

 1-2  2.897082430  1-5  2.069901355  1-6  2.069042560  1-7  2.069042560  2-3  2.724447609
     ( 1.533070000)     ( 1.095344626)     ( 1.094890171)     ( 1.094890171)     ( 1.441715587)

  2-11  2.905954351   2-12  2.905954351   3- 4  2.668995640   4- 8  2.067212379   4- 9  2.078624355
       ( 1.537764818)       ( 1.537764818)       ( 1.412371669)       ( 1.093921681)       ( 1.099960639)

  4-10  2.078624355  11-13  2.070081404  11-15  2.070524757  11-17  2.070111596  12-14  2.070081404
       ( 1.099960639)       ( 1.095439904)       ( 1.095674516)       ( 1.095455880)       ( 1.095439904)

 12-16  2.070524757  12-18  2.070111596
       ( 1.095674516)       ( 1.095455880)

 Bond angles

  1- 2- 3  103.23196371   1- 2-11  110.12706952   1- 2-12  110.12706952   2- 1- 5  110.95650426

  2- 1- 6  110.20481748   2- 1- 7  110.20481748   2- 3- 4  117.98647004   2-11-13  110.26679927

  2-11-15  110.37287188   2-11-17  112.08316935   2-12-14  110.26679927   2-12-16  110.37287188

  2-12-18  112.08316935   3- 2-11  111.07703285   3- 2-12  111.07703285   3- 4- 8  106.07765410

  3- 4- 9  112.87219182   3- 4-10  112.87219182   5- 1- 6  108.65976572   5- 1- 7  108.65976572

  6- 1- 7  108.08288210   8- 4- 9  108.20190897   8- 4-10  108.20190897   9- 4-10  108.40564999

 11- 2-12  110.95103964  13-11-15  108.29648994  13-11-17  108.35544687  14-12-16  108.29648994

 14-12-18  108.35544687  15-11-17  107.33851825  16-12-18  107.33851825

 NUCLEAR CHARGE:                   50
 NUMBER OF PRIMITIVE AOS:         234
 NUMBER OF SYMMETRY AOS:          228
 NUMBER OF CONTRACTIONS:          144   ( 144A   )
 NUMBER OF CORE ORBITALS:           6   (   6A   )
 NUMBER OF VALENCE ORBITALS:       36   (  36A   )


 NUCLEAR REPULSION ENERGY  270.15500869


 Eigenvalues of metric

         1 0.176E-02 0.508E-02 0.513E-02 0.102E-01 0.124E-01 0.215E-01 0.221E-01 0.252E-01


 Contracted 2-electron integrals neglected if value below      1.0D-11
 AO integral compression algorithm  1   Integral accuracy      1.0D-11

     186.384 MB (compressed) written to integral file ( 41.3%)


 NUMBER OF SORTED TWO-ELECTRON INTEGRALS:   54502020.     BUFFER LENGTH:  32768
 NUMBER OF SEGMENTS:   4  SEGMENT LENGTH:   15999503      RECORD LENGTH: 524288

 Memory used in sort:      16.56 MW

 SORT1 READ    56333432. AND WROTE    45703433. INTEGRALS IN    132 RECORDS. CPU TIME:     0.76 SEC, REAL TIME:     1.50 SEC
 SORT2 READ    45703433. AND WROTE    54502020. INTEGRALS IN    711 RECORDS. CPU TIME:     1.12 SEC, REAL TIME:     1.48 SEC

 FILE SIZES:   FILE 1:   217.4 MBYTE,  FILE 4:   553.7 MBYTE,   TOTAL:    771.1 MBYTE

 OPERATOR DM      FOR CENTER  0  COORDINATES:    0.000000    0.000000    0.000000


 **********************************************************************************************************************************
 DATASETS  * FILE   NREC   LENGTH (MB)   RECORD NAMES
              1      19      194.45       500      610      700      900      950      970     1000      129      960     1100   
                                          VAR    BASINP    GEOM    SYMINP    ZMAT    AOBASIS   BASIS     P2S    ABASIS      S 
                                         1400     1410     1200     1210     1080     1600     1650     1300     1700   
                                           T        V       H0       H01     AOSYM     SMH    MOLCAS    ERIS     OPER   

 PROGRAMS   *        TOTAL       INT
 CPU TIMES  *         7.61      7.46
 REAL TIME  *         9.58 SEC
 DISK USED  *       771.70 MB      
 **********************************************************************************************************************************

 Density functional group BECKE=B88
 Functional: B88(Automatically generated (new) B88)                            Gradient terms: 1
 Use grid at  1800.2

 Functional: B88                       Factor:  1.0000

 Generated new metagrid on record  1800.2 with target accuracy 1.0D-06 and 66012 points in CPU time    2.0
 Computed new grid on record 1800.1 in CPU time    2.3
  118710 words reserved for DFT integration

 PROGRAM * RKS-SCF (Restricted closed shell Kohn-Sham)     Authors: W. Meyer, H.-J. Werner, P.J. Knowles, 1993

 NUMBER OF ELECTRONS:      25+   25-    SPACE SYMMETRY=1    SPIN SYMMETRY: Singlet 
 CONVERGENCE THRESHOLDS:    1.00E-05 (Density)    1.00E-06 (Energy)
 MAX. NUMBER OF ITERATIONS:       60
 INTERPOLATION TYPE:            DIIS
 INTERPOLATION STEPS:              2 (START)      1 (STEP)
 LEVEL SHIFTS:                  0.00 (CLOSED)  0.00 (OPEN) 



 Use fine grid record 1800.2 for energy threshold  1.0D-06
 Orbital guess generated from atomic densities. Full valence occupancy:   25

 Molecular orbital dump at record        2100.2

 Initial occupancy:  25

 ITERATION    DDIFF          GRAD             ENERGY        2-EL.EN.            DIPOLE MOMENTS         DIIS   ORB.
    1      0.000D+00      0.000D+00      -270.68174561    820.208986   -0.63486    0.00000    0.60571    0    start
    2      0.000D+00      0.951D-02      -270.26242470    768.878719    0.35913   -0.00000   -0.43912    1    diag
    3      0.308D-01      0.145D-01      -270.97659097    802.597595   -0.42594    0.00000    0.42208    2    diag
    4      0.232D-01      0.170D-02      -270.98260500    800.342962   -0.24746    0.00000    0.25683    3    diag
    5      0.227D-02      0.827D-03      -270.98414191    800.459534   -0.33135    0.00000    0.29199    4    diag
    6      0.755D-03      0.201D-03      -270.98422557    800.570078   -0.30973    0.00000    0.28562    5    diag
    7      0.216D-03      0.842D-04      -270.98424363    800.555889   -0.31303    0.00000    0.28868    6    diag
    8      0.695D-04      0.768D-05      -270.98424378    800.564455   -0.31370    0.00000    0.29021    7    diag
    9      0.106D-04      0.330D-05      -270.98424382    800.566481   -0.31369    0.00000    0.28960    8    diag
   10      0.384D-05      0.867D-06      -270.98424381    800.565335   -0.31345    0.00000    0.28957    0    orth

 Final occupancy:  25

 !RKS STATE 1.1 Energy               -270.984243812935
 Nuclear energy                       270.15500869
 One-electron energy                 -903.05061217
 Two-electron energy                  400.28266735
 Density functional                   -38.37130768     B88=-38.37130768
 Virial quotient                       -1.00512990
 !RKS STATE 1.1 Dipole moment          -0.31344671     0.00000000     0.28957060
 Dipole moment /Debye                  -0.79664988     0.00000000     0.73596684

 Orbital energies:

         1.1          2.1          3.1          4.1          5.1          6.1          7.1          8.1          9.1         10.1
    -18.731198    -9.934544    -9.924209    -9.878345    -9.878334    -9.873490    -0.877711    -0.674115    -0.582087    -0.577161

        11.1         12.1         13.1         14.1         15.1         16.1         17.1         18.1         19.1         20.1
     -0.556639    -0.447697    -0.393191    -0.371370    -0.367357    -0.343996    -0.327544    -0.314965    -0.300004    -0.292000

        21.1         22.1         23.1         24.1         25.1         26.1         27.1
     -0.284653    -0.262879    -0.262769    -0.212024    -0.164741     0.058228     0.087028

 HOMO     25.1    -0.164741 =      -4.4828eV
 LUMO     26.1     0.058228 =       1.5845eV
 LUMO-HOMO         0.222969 =       6.0673eV


 **********************************************************************************************************************************
 DATASETS  * FILE   NREC   LENGTH (MB)   RECORD NAMES
              1      20      196.57       500      610      700      900      950      970     1000      129      960     1100   
                                          VAR    BASINP    GEOM    SYMINP    ZMAT    AOBASIS   BASIS     P2S    ABASIS      S 
                                         1400     1410     1200     1210     1080     1600     1650     1300     1700     1800   
                                           T        V       H0       H01     AOSYM     SMH    MOLCAS    ERIS     OPER     GRID   

              2       5        3.48       700     1000      520     1800     2100   
                                         GEOM     BASIS   MCVARS    GRID      RKS  

 PROGRAMS   *        TOTAL        KS       INT
 CPU TIMES  *        29.94     22.33      7.46
 REAL TIME  *        33.69 SEC
 DISK USED  *       771.70 MB      
 **********************************************************************************************************************************


 PROGRAM * Intrinsic Basis Bonding Analysis (IBBA)          Author: G. Knizia

 Molecular orbitals read from record     2100.2  Type=RKS/CANONICAL (state 1.1)
 Fock matrix read from record            2100.2  Type=RKS/TOTAL (state 1.1)
 Orbital energies read from record       2100.2  Type=RKS/CANONICAL (state 1.1)
 Density matrix read from record         2100.2  Type=RKS/CHARGE (state 1.1)

 Number of core orbitals:           6 (   6 )
 Number of closed-shell orbitals:  19 (  19 )

 Basis set MINAO-AUTO-PP generated.      Number of basis functions:   42 

 Polarized AO type:                A = (O Ot + (1-O)(1-Ot)) P12
 Orthogonalization method:         Symmetric (Loewdin)
 Localization functional:          L = sum[A,i] <i|n_A|i>^4 -> max

 Localization group 1:  25 orbitals, occupancy  2.000
 Iterative localization: IB/PM,    7 iter; Final gradient 0.25E-08

 Bond order analysis:       [THRPRINT= 0.020]

   CEN ATOM   CEN ATOM     WIBERG.BO      RENORM.BO
     1   C  -   2   C       0.995715       0.995698
     1   C  -   5   H       0.966991       0.984345
     1   C  -   7   H       0.963044       0.979822
     1   C  -   6   H       0.963044       0.979822

     2   C  -   1   C       0.995715       0.995698
     2   C  -  12   C       0.991075       0.971405
     2   C  -  11   C       0.991075       0.971405
     2   C  -   3   O       0.929578       0.937180

     3   O  -   4   C       0.998340       1.017994
     3   O  -   2   C       0.929578       0.937180
     3   O  -   9   H       0.036778       0.021473
     3   O  -  10   H       0.036778       0.021473
     3   O  -  12   C       0.027828       0.014498
     3   O  -  11   C       0.027828       0.014498

     4   C  -   3   O       0.998340       1.017994
     4   C  -   8   H       0.960251       0.976611
     4   C  -   9   H       0.949044       0.930427
     4   C  -  10   H       0.949044       0.930427

     5   H  -   1   C       0.966991       0.984345

     6   H  -   1   C       0.963044       0.979822

     7   H  -   1   C       0.963044       0.979822

     8   H  -   4   C       0.960251       0.976611

     9   H  -   4   C       0.949044       0.930427
     9   H  -   3   O       0.036778       0.021473

    10   H  -   4   C       0.949044       0.930427
    10   H  -   3   O       0.036778       0.021473

    11   C  -   2   C       0.991075       0.971405
    11   C  -  17   H       0.965027       0.979827
    11   C  -  15   H       0.963605       0.984780
    11   C  -  13   H       0.963421       0.979837
    11   C  -   3   O       0.027828       0.014498

    12   C  -   2   C       0.991075       0.971405
    12   C  -  18   H       0.965027       0.979827
    12   C  -  16   H       0.963605       0.984780
    12   C  -  14   H       0.963421       0.979837
    12   C  -   3   O       0.027828       0.014498

    13   H  -  11   C       0.963421       0.979837

    14   H  -  12   C       0.963421       0.979837

    15   H  -  11   C       0.963605       0.984780

    16   H  -  12   C       0.963605       0.984780

    17   H  -  11   C       0.965027       0.979827

    18   H  -  12   C       0.965027       0.979827


 Valency analysis:

   CEN ATOM   TOT.VALENCE
     1   C       3.951749
     2   C       3.936409
     3   O       2.131190
     4   C       3.881931
     5   H       0.987426
     6   H       0.985109
     7   H       0.985109
     8   H       0.982508
     9   H       0.990823
    10   H       0.990823
    11   C       3.951437
    12   C       3.951437
    13   H       0.985350
    14   H       0.985350
    15   H       0.985715
    16   H       0.985715
    17   H       0.987127
    18   H       0.987127

 Total charge composition:

   CEN ATOM         s          p       ELECTRONS ->P.CHARGE
     1   C       3.02096    3.33297      6.35394   -0.35394
     2   C       2.92646    2.82598      5.75244    0.24756
     3   O       3.60262    4.77836      8.38098   -0.38098
     4   C       3.00748    3.14534      6.15283   -0.15283
     5   H       0.88787                 0.88787    0.11213
     6   H       0.87797                 0.87797    0.12203
     7   H       0.87797                 0.87797    0.12203
     8   H       0.86774                 0.86774    0.13226
     9   H       0.90420                 0.90420    0.09580
    10   H       0.90420                 0.90420    0.09580
    11   C       3.02102    3.35293      6.37395   -0.37395
    12   C       3.02102    3.35293      6.37395   -0.37395
    13   H       0.87896                 0.87896    0.12104
    14   H       0.87896                 0.87896    0.12104
    15   H       0.88048                 0.88048    0.11952
    16   H       0.88048                 0.88048    0.11952
    17   H       0.88654                 0.88654    0.11346
    18   H       0.88654                 0.88654    0.11346

 Total charge composition, AO contributions:

   CEN ATOM SHL      SPHERICAL COMPONENTS
     1   C  1s       1.99125
     1   C  2s       1.02971
     1   C  2p       1.14153    1.15455    1.03689

     2   C  1s       1.99290
     2   C  2s       0.93356
     2   C  2p       0.79762    1.01473    1.01363

     3   O  1s       1.99731
     3   O  2s       1.60531
     3   O  2p       1.43160    1.90199    1.44476

     4   C  1s       1.99189
     4   C  2s       1.01560
     4   C  2p       1.14351    1.15445    0.84737

     5   H  1s       0.88787

     6   H  1s       0.87797

     7   H  1s       0.87797

     8   H  1s       0.86774

     9   H  1s       0.90420

    10   H  1s       0.90420

    11   C  1s       1.99130
    11   C  2s       1.02972
    11   C  2p       1.12909    1.08765    1.13620

    12   C  1s       1.99130
    12   C  2s       1.02972
    12   C  2p       1.12909    1.08765    1.13620

    13   H  1s       0.87896

    14   H  1s       0.87896

    15   H  1s       0.88048

    16   H  1s       0.88048

    17   H  1s       0.88654

    18   H  1s       0.88654

 Summary of localized orbital composition:   [THRPRINT= 0.020]

   ORB  GRP  ORB.ENERGY      CENTERS/CHARGES
     1   1   -18.593309      O  3   2.000
     2   1    -9.846093      C  2   2.000
     3   1    -9.818575      C  4   2.000
     4   1    -9.767835      C 12   2.000
     5   1    -9.767835      C 11   2.000
     6   1    -9.762354      C  1   2.000
     7   1    -0.647326      O  3   1.245   C  4   0.746
     8   1    -0.621123      O  3   1.270   C  2   0.704   (other: 0.026)
     9   1    -0.475022      C 11   1.008   C  2   0.975
    10   1    -0.475022      C 12   1.008   C  2   0.975
    11   1    -0.472225      C  1   0.991   C  2   0.985   (other: 0.024)
    12   1    -0.429343      O  3   1.957   (other: 0.043)
    13   1    -0.426137      C  4   1.116   H 10   0.882
    14   1    -0.426137      C  4   1.116   H  9   0.882
    15   1    -0.424062      C  4   1.131   H  8   0.861
    16   1    -0.412624      C 11   1.113   H 15   0.872
    17   1    -0.412624      C 12   1.113   H 16   0.872
    18   1    -0.411030      C 12   1.111   H 18   0.878
    19   1    -0.411030      C 11   1.111   H 17   0.878
    20   1    -0.408759      C  1   1.107   H  5   0.880
    21   1    -0.407382      C 11   1.119   H 13   0.871
    22   1    -0.407382      C 12   1.119   H 14   0.871
    23   1    -0.402305      C  1   1.119   H  7   0.870
    24   1    -0.402305      C  1   1.119   H  6   0.870
    25   1    -0.205184      O  3   1.902   C  4   0.021   C  2   0.020   (other: 0.057)

 Localized orbitals saved to record      2100.2  (orbital set 2)


 **********************************************************************************************************************************
 DATASETS  * FILE   NREC   LENGTH (MB)   RECORD NAMES
              1      20      196.57       500      610      700      900      950      970     1000      129      960     1100   
                                          VAR    BASINP    GEOM    SYMINP    ZMAT    AOBASIS   BASIS     P2S    ABASIS      S 
                                         1400     1410     1200     1210     1080     1600     1650     1300     1700     1800   
                                           T        V       H0       H01     AOSYM     SMH    MOLCAS    ERIS     OPER     GRID   

              2       5        3.65       700     1000      520     1800     2100   
                                         GEOM     BASIS   MCVARS    GRID      RKS  

 PROGRAMS   *        TOTAL      IBBA        KS       INT
 CPU TIMES  *        30.00      0.06     22.33      7.46
 REAL TIME  *        33.89 SEC
 DISK USED  *       771.70 MB      
 **********************************************************************************************************************************
 Molecular orbitals read from record     2100.2  Type=RKS/LOCAL(IBO)  
 Occupation numbers read from record     2100.2  Type=RKS/LOCAL(IBO)  
 Orbital energies read from record       2100.2  Type=RKS/LOCAL(IBO)  
 Redundancy group numbers read from rec  2100.2  Type=RKS/LOCAL(IBO)  

 IBBA/SVP energy=      0.000000000000

        KS-SCF  
   -270.98424381
 **********************************************************************************************************************************
 Molpro calculation terminated
