
 Primary working directories    : /tmp/sb13343
 Secondary working directories  : /tmp/sb13343
 Wavefunction directory         : /panfs/panasas01/chem/sb13343/wfu/
 Main file repository           : /tmp/sb13343/

 SHA1      : b4a5b34a9e711420743f49e6833241d17c61fb3c
 NAME      : 2099.9.b4a5b34
 ARCHNAME  : linux/x86_64_openmp
 FC        : /cm/shared/languages/GCC-6.1/bin/gfortran
 BLASLIB   : -lblas
 id        : simonbennie

 Nodes     nprocs
 node35-048    1

 Using customized tuning parameters: mindgm=1; mindgv=20; mindgc=4; mindgr=1; noblas=0; minvec=7
 default implementation of scratch files=df  

 memory,500,m
 geomtyp=xyz
 nosym
 noorient
 geometry={
 C         -1.53233        0.02247        0.00000
 C         -0.00192        0.01421        0.00000
 O          0.37239        1.40356        0.00000
 H          1.34248        1.44036        0.00000
 H         -1.92991       -0.99819        0.00000
 H         -1.90797        0.54382       -0.88653
 H         -1.90797        0.54382        0.88653
 C          0.54303       -0.66466       -1.26580
 C          0.54303       -0.66466        1.26580
 H          0.17836       -0.14752       -2.15943
 H          0.17836       -0.14752        2.15943
 H          0.23752       -1.71600       -1.32280
 H          0.23752       -1.71600        1.32280
 H          1.64084       -0.63767       -1.28032
 H          1.64084       -0.63767        1.28032
 }
 basis={ default,sto-3g }
 {ks,PBEREV,direct;wf,42,1,0}
 {ibba,bonds=1}

 Variables initialized (895), CPU time= 0.01 sec
 Commands  initialized (725), CPU time= 0.01 sec, 591 directives.
 Default parameters read. Elapsed time= 0.09 sec

 Checking input...
 Passed
1


                                         ***  PROGRAM SYSTEM MOLPRO  ***
                                       Copyright, TTI GmbH Stuttgart, 2015
                                    Version 2099.9 linked May 26 2017 16:03:21


 **********************************************************************************************************************************
 LABEL *                                                                                 
  64 bit serial version                                                                  DATE: 09-Jun-17          TIME: 03:29:13  
 **********************************************************************************************************************************

 SHA1:             b4a5b34a9e711420743f49e6833241d17c61fb3c
 **********************************************************************************************************************************
 SETTING GEOMTYP        =    XYZ

 Variable memory set to  500000000 words,  buffer space 

 ZSYMEL=NOSYM

 SETTING BASIS          =    STO-3G


 Recomputing integrals since basis changed


 Using spherical harmonics

 Library entry C      S STO-3G               selected for orbital group  1
 Library entry C      P STO-3G               selected for orbital group  1
 Library entry O      S STO-3G               selected for orbital group  2
 Library entry O      P STO-3G               selected for orbital group  2
 Library entry H      S STO-3G               selected for orbital group  3


 PROGRAM * SEWARD (Integral evaluation for generally contracted gaussian basis sets)     Author: Roland Lindh, 1990

 Geometry written to block  1 of record 700


 Point group  C1  



 ATOMIC COORDINATES

 NR  ATOM    CHARGE       X              Y              Z

   1  C       6.00   -2.895684032    0.042462146    0.000000000
   2  C       6.00   -0.003628274    0.026853008    0.000000000
   3  O       8.00    0.703715112    2.652343999    0.000000000
   4  H       1.00    2.536919528    2.721885921    0.000000000
   5  H       1.00   -3.647001345   -1.886305720    0.000000000
   6  H       1.00   -3.605540754    1.027670861   -1.675298901
   7  H       1.00   -3.605540754    1.027670861    1.675298901
   8  C       6.00    1.026177977   -1.256025366   -2.392015328
   9  C       6.00    1.026177977   -1.256025366    2.392015328
  10  H       1.00    0.337051552   -0.278772398   -4.080731285
  11  H       1.00    0.337051552   -0.278772398    4.080731285
  12  H       1.00    0.448847749   -3.242770030   -2.499729718
  13  H       1.00    0.448847749   -3.242770030    2.499729718
  14  H       1.00    3.100738214   -1.205021658   -2.419454152
  15  H       1.00    3.100738214   -1.205021658    2.419454152

 Bond lengths in Bohr (Angstrom)

 1-2  2.892097881  1-5  2.069933136  1-6  2.069096224  1-7  2.069096224  2-3  2.719106031
     ( 1.530432290)     ( 1.095361444)     ( 1.094918569)     ( 1.094918569)     ( 1.438888946)

  2- 8  2.903104402   2- 9  2.903104402   3- 4  1.834522965   8-10  2.069222119   8-12  2.071730422
       ( 1.536256691)       ( 1.536256691)       ( 0.970787746)       ( 1.094985190)       ( 1.096312526)

  8-14  2.075368508   9-11  2.069222119   9-13  2.071730422   9-15  2.075368508
       ( 1.098237719)       ( 1.094985190)       ( 1.096312526)       ( 1.098237719)

 Bond angles

  1-2-3  104.76902697   1-2-8  110.92255387   1-2-9  110.92255387   2-1-5  110.97328220

  2- 1- 6  110.22090701   2- 1- 7  110.22090701   2- 3- 4  107.25071562   2- 8-10  110.21836376

  2- 8-12  111.57747468   2- 8-14  110.77023896   2- 9-11  110.21836376   2- 9-13  111.57747468

  2- 9-15  110.77023896   3- 2- 8  109.53648747   3- 2- 9  109.53648747   5- 1- 6  108.61190457

  5- 1- 7  108.61190457   6- 1- 7  108.12870271   8- 2- 9  110.96453384  10- 8-12  108.52192632

 10- 8-14  108.08997829  11- 9-13  108.52192632  11- 9-15  108.08997829  12- 8-14  107.54424578

 13- 9-15  107.54424578

 NUCLEAR CHARGE:                   42
 NUMBER OF PRIMITIVE AOS:         105
 NUMBER OF SYMMETRY AOS:          105
 NUMBER OF CONTRACTIONS:           35   (  35A   )
 NUMBER OF CORE ORBITALS:           5   (   5A   )
 NUMBER OF VALENCE ORBITALS:       30   (  30A   )


 NUCLEAR REPULSION ENERGY  198.77359127


 Eigenvalues of metric

         1 0.207E+00 0.227E+00 0.228E+00 0.304E+00 0.354E+00 0.360E+00 0.361E+00 0.363E+00


 Contracted 2-electron integrals neglected if value below      1.0D-11
 AO integral compression algorithm  1   Integral accuracy      1.0D-11

     1.573 MB (compressed) written to integral file ( 87.8%)


 NUMBER OF SORTED TWO-ELECTRON INTEGRALS:     198765.     BUFFER LENGTH:  32768
 NUMBER OF SEGMENTS:   1  SEGMENT LENGTH:     198765      RECORD LENGTH: 524288

 Memory used in sort:       0.76 MW

 SORT1 READ      224962. AND WROTE      188577. INTEGRALS IN      1 RECORDS. CPU TIME:     0.01 SEC, REAL TIME:     0.01 SEC
 SORT2 READ      188577. AND WROTE      198765. INTEGRALS IN      6 RECORDS. CPU TIME:     0.02 SEC, REAL TIME:     0.02 SEC

 FILE SIZES:   FILE 1:    31.8 MBYTE,  FILE 4:     4.2 MBYTE,   TOTAL:     36.0 MBYTE

 OPERATOR DM      FOR CENTER  0  COORDINATES:    0.000000    0.000000    0.000000


 **********************************************************************************************************************************
 DATASETS  * FILE   NREC   LENGTH (MB)   RECORD NAMES
              1      19       31.10       500      610      700      900      950      970     1000      129      960     1100   
                                          VAR    BASINP    GEOM    SYMINP    ZMAT    AOBASIS   BASIS     P2S    ABASIS      S 
                                         1400     1410     1200     1210     1080     1600     1650     1300     1700   
                                           T        V       H0       H01     AOSYM     SMH    MOLCAS    ERIS     OPER   

 PROGRAMS   *        TOTAL       INT
 CPU TIMES  *         0.67      0.50
 REAL TIME  *         1.92 SEC
 DISK USED  *        36.55 MB      
 **********************************************************************************************************************************

 Density functional group PBEREV=PBEXREV+PBEC
 Functional: PBEXREV(Automatically generated (new) PBEXREV)                    Gradient terms: 1
 Functional: PBEC(Automatically generated (new) PBEC)                          Gradient terms: 1
 Use grid at  1800.2

 Functional: PBEXREV                   Factor:  1.0000
 Functional: PBEC                      Factor:  1.0000

 Generated new metagrid on record  1800.2 with target accuracy 1.0D-06 and 53396 points in CPU time    1.7
 Computed new grid on record 1800.1 in CPU time    1.9
   32369 words reserved for DFT integration

 PROGRAM * RKS-SCF (Restricted closed shell Kohn-Sham)     Authors: W. Meyer, H.-J. Werner, P.J. Knowles, 1993

 NUMBER OF ELECTRONS:      21+   21-    SPACE SYMMETRY=1    SPIN SYMMETRY: Singlet 
 CONVERGENCE THRESHOLDS:    1.00E-05 (Density)    1.00E-06 (Energy)
 MAX. NUMBER OF ITERATIONS:       60
 INTERPOLATION TYPE:            DIIS
 INTERPOLATION STEPS:              2 (START)      1 (STEP)
 LEVEL SHIFTS:                  0.00 (CLOSED)  0.00 (OPEN) 



 Use fine grid record 1800.2 for energy threshold  1.0D-06
 Orbital guess generated from atomic densities. Full valence occupancy:   21

 Molecular orbital dump at record        2100.2

 Initial occupancy:  21

 ITERATION    DDIFF          GRAD             ENERGY        2-EL.EN.            DIPOLE MOMENTS         DIIS   ORB.
    1      0.000D+00      0.000D+00      -230.32176203    639.986797    0.76559   -1.03998    0.00000    0    start
    2      0.000D+00      0.292D-01      -230.33427532    608.800694   -0.31043    0.23082    0.00000    1    diag
    3      0.103D+00      0.288D-01      -230.66661102    623.728649    0.37230   -0.30958    0.00000    2    diag
    4      0.535D-01      0.114D-02      -230.66704176    623.718277    0.31671   -0.36700    0.00000    3    diag
    5      0.291D-02      0.558D-03      -230.66715412    623.659814    0.31473   -0.34996    0.00000    4    diag
    6      0.101D-02      0.612D-04      -230.66715584    623.657662    0.31970   -0.34843    0.00000    5    diag
    7      0.157D-03      0.167D-04      -230.66715593    623.657039    0.31931   -0.34920    0.00000    6    diag
    8      0.332D-04      0.501D-05      -230.66715594    623.657044    0.31909   -0.34901    0.00000    7    diag
    9      0.873D-05      0.797D-06      -230.66715594    623.657077    0.31915   -0.34908    0.00000    0    orth

 Final occupancy:  21

 !RKS STATE 1.1 Energy               -230.667155941364
 Nuclear energy                       198.77359127
 One-electron energy                 -707.19580885
 Two-electron energy                  311.82853835
 Density functional                   -34.07347671     PBEXREV=-32.66341074 PBEC= -1.41006597
 Virial quotient                       -1.01540043
 !RKS STATE 1.1 Dipole moment           0.31915266    -0.34907794     0.00000000
 Dipole moment /Debye                   0.81115202    -0.88720952     0.00000000

 Orbital energies:

         1.1          2.1          3.1          4.1          5.1          6.1          7.1          8.1          9.1         10.1
    -18.476711    -9.777616    -9.717157    -9.716905    -9.716818    -0.857491    -0.668169    -0.585916    -0.585017    -0.457167

        11.1         12.1         13.1         14.1         15.1         16.1         17.1         18.1         19.1         20.1
     -0.382743    -0.354666    -0.354096    -0.313133    -0.308440    -0.285688    -0.284243    -0.253335    -0.250209    -0.150581

        21.1         22.1         23.1
     -0.062488     0.256539     0.316964

 HOMO     21.1    -0.062488 =      -1.7004eV
 LUMO     22.1     0.256539 =       6.9808eV
 LUMO-HOMO         0.319027 =       8.6812eV


 **********************************************************************************************************************************
 DATASETS  * FILE   NREC   LENGTH (MB)   RECORD NAMES
              1      20       32.81       500      610      700      900      950      970     1000      129      960     1100   
                                          VAR    BASINP    GEOM    SYMINP    ZMAT    AOBASIS   BASIS     P2S    ABASIS      S 
                                         1400     1410     1200     1210     1080     1600     1650     1300     1700     1800   
                                           T        V       H0       H01     AOSYM     SMH    MOLCAS    ERIS     OPER     GRID   

              2       5        3.02       700     1000      520     1800     2100   
                                         GEOM     BASIS   MCVARS    GRID      RKS  

 PROGRAMS   *        TOTAL        KS       INT
 CPU TIMES  *         5.27      4.60      0.50
 REAL TIME  *         7.21 SEC
 DISK USED  *        36.55 MB      
 **********************************************************************************************************************************


 PROGRAM * Intrinsic Basis Bonding Analysis (IBBA)          Author: G. Knizia

 Molecular orbitals read from record     2100.2  Type=RKS/CANONICAL (state 1.1)
 Fock matrix read from record            2100.2  Type=RKS/TOTAL (state 1.1)
 Orbital energies read from record       2100.2  Type=RKS/CANONICAL (state 1.1)
 Density matrix read from record         2100.2  Type=RKS/CHARGE (state 1.1)

 Number of core orbitals:           5 (   5 )
 Number of closed-shell orbitals:  16 (  16 )

 Basis set MINAO-AUTO-PP generated.      Number of basis functions:   35 

 Polarized AO type:                A = (O Ot + (1-O)(1-Ot)) P12
 Orthogonalization method:         Symmetric (Loewdin)
 Localization functional:          L = sum[A,i] <i|n_A|i>^4 -> max

 Localization group 1:  21 orbitals, occupancy  2.000
 Iterative localization: IB/PM,    7 iter; Final gradient 0.15E-08

 Bond order analysis:       [THRPRINT= 0.020]

   CEN ATOM   CEN ATOM     WIBERG.BO      RENORM.BO
     1   C  -   2   C       0.990398       0.985128
     1   C  -   5   H       0.966486       0.989616
     1   C  -   6   H       0.963133       0.986497
     1   C  -   7   H       0.963133       0.986497

     2   C  -   3   O       1.005144       0.981066
     2   C  -   1   C       0.990398       0.985128
     2   C  -   8   C       0.985214       0.958063
     2   C  -   9   C       0.985214       0.958063

     3   O  -   2   C       1.005144       0.981066
     3   O  -   4   H       0.930309       0.981031
     3   O  -   9   C       0.030164       0.015620
     3   O  -   8   C       0.030164       0.015620

     4   H  -   3   O       0.930309       0.981031

     5   H  -   1   C       0.966486       0.989616

     6   H  -   1   C       0.963133       0.986497

     7   H  -   1   C       0.963133       0.986497

     8   C  -   2   C       0.985214       0.958063
     8   C  -  14   H       0.965883       0.985710
     8   C  -  12   H       0.964188       0.986632
     8   C  -  10   H       0.964010       0.986182
     8   C  -   3   O       0.030164       0.015620

     9   C  -   2   C       0.985214       0.958063
     9   C  -  15   H       0.965883       0.985710
     9   C  -  13   H       0.964188       0.986632
     9   C  -  11   H       0.964010       0.986182
     9   C  -   3   O       0.030164       0.015620

    10   H  -   8   C       0.964010       0.986182

    11   H  -   9   C       0.964010       0.986182

    12   H  -   8   C       0.964188       0.986632

    13   H  -   9   C       0.964188       0.986632

    14   H  -   8   C       0.965883       0.985710

    15   H  -   9   C       0.965883       0.985710


 Valency analysis:

   CEN ATOM   TOT.VALENCE
     1   C       3.935122
     2   C       3.975175
     3   O       2.049030
     4   H       0.948511
     5   H       0.982995
     6   H       0.981534
     7   H       0.981534
     8   C       3.937903
     9   C       3.937903
    10   H       0.982161
    11   H       0.982161
    12   H       0.982662
    13   H       0.982662
    14   H       0.984479
    15   H       0.984479

 Total charge composition:

   CEN ATOM         s          p       ELECTRONS ->P.CHARGE
     1   C       3.00173    3.38969      6.39143   -0.39143
     2   C       2.94884    2.93560      5.88444    0.11556
     3   O       3.68799    4.63558      8.32357   -0.32357
     4   H       0.77309                 0.77309    0.22691
     5   H       0.86960                 0.86960    0.13040
     6   H       0.86411                 0.86411    0.13589
     7   H       0.86411                 0.86411    0.13589
     8   C       3.00701    3.39764      6.40465   -0.40465
     9   C       3.00701    3.39764      6.40465   -0.40465
    10   H       0.86644                 0.86644    0.13356
    11   H       0.86644                 0.86644    0.13356
    12   H       0.86833                 0.86833    0.13167
    13   H       0.86833                 0.86833    0.13167
    14   H       0.87542                 0.87542    0.12458
    15   H       0.87542                 0.87542    0.12458

 Total charge composition, AO contributions:

   CEN ATOM SHL      SPHERICAL COMPONENTS
     1   C  1s       1.99194
     1   C  2s       1.00979
     1   C  2p       1.05082    1.16568    1.17320

     2   C  1s       1.99335
     2   C  2s       0.95549
     2   C  2p       1.02906    0.87926    1.02728

     3   O  1s       1.99736
     3   O  2s       1.69063
     3   O  2p       1.34501    1.34009    1.95048

     4   H  1s       0.77309

     5   H  1s       0.86960

     6   H  1s       0.86411

     7   H  1s       0.86411

     8   C  1s       1.99204
     8   C  2s       1.01497
     8   C  2p       1.14808    1.14891    1.10065

     9   C  1s       1.99204
     9   C  2s       1.01497
     9   C  2p       1.14808    1.14891    1.10065

    10   H  1s       0.86644

    11   H  1s       0.86644

    12   H  1s       0.86833

    13   H  1s       0.86833

    14   H  1s       0.87542

    15   H  1s       0.87542

 Summary of localized orbital composition:   [THRPRINT= 0.020]

   ORB  GRP  ORB.ENERGY      CENTERS/CHARGES
     1   1   -18.306745      O  3   2.000
     2   1    -9.686492      C  2   2.000
     3   1    -9.607773      C  8   2.000
     4   1    -9.607773      C  9   2.000
     5   1    -9.607189      C  1   2.000
     6   1    -0.591051      O  3   1.225   H  4   0.765
     7   1    -0.547370      O  3   1.157   C  2   0.826
     8   1    -0.466657      C  2   0.993   C  1   0.984   (other: 0.023)
     9   1    -0.466022      C  8   0.999   C  2   0.987
    10   1    -0.466022      C  9   0.999   C  2   0.987
    11   1    -0.428858      O  3   1.985
    12   1    -0.414331      C  9   1.122   H 15   0.869
    13   1    -0.414331      C  8   1.122   H 14   0.869
    14   1    -0.412755      C  9   1.129   H 13   0.860
    15   1    -0.412755      C  8   1.129   H 12   0.860
    16   1    -0.411479      C  1   1.127   H  5   0.863
    17   1    -0.410001      C  9   1.132   H 11   0.859
    18   1    -0.410001      C  8   1.132   H 10   0.859
    19   1    -0.405786      C  1   1.133   H  6   0.857
    20   1    -0.405786      C  1   1.133   H  7   0.857
    21   1    -0.079412      O  3   1.950   C  2   0.023   (other: 0.026)

 Localized orbitals saved to record      2100.2  (orbital set 2)


 **********************************************************************************************************************************
 DATASETS  * FILE   NREC   LENGTH (MB)   RECORD NAMES
              1      20       32.81       500      610      700      900      950      970     1000      129      960     1100   
                                          VAR    BASINP    GEOM    SYMINP    ZMAT    AOBASIS   BASIS     P2S    ABASIS      S 
                                         1400     1410     1200     1210     1080     1600     1650     1300     1700     1800   
                                           T        V       H0       H01     AOSYM     SMH    MOLCAS    ERIS     OPER     GRID   

              2       5        3.03       700     1000      520     1800     2100   
                                         GEOM     BASIS   MCVARS    GRID      RKS  

 PROGRAMS   *        TOTAL      IBBA        KS       INT
 CPU TIMES  *         5.30      0.03      4.60      0.50
 REAL TIME  *         7.36 SEC
 DISK USED  *        36.55 MB      
 **********************************************************************************************************************************
 Molecular orbitals read from record     2100.2  Type=RKS/LOCAL(IBO)  
 Occupation numbers read from record     2100.2  Type=RKS/LOCAL(IBO)  
 Orbital energies read from record       2100.2  Type=RKS/LOCAL(IBO)  
 Redundancy group numbers read from rec  2100.2  Type=RKS/LOCAL(IBO)  

 IBBA/STO-3G energy=      0.000000000000

        KS-SCF  
   -230.66715594
 **********************************************************************************************************************************
 Molpro calculation terminated
