
 Primary working directories    : /tmp/sb13343
 Secondary working directories  : /tmp/sb13343
 Wavefunction directory         : /panfs/panasas01/chem/sb13343/wfu/
 Main file repository           : /tmp/sb13343/

 SHA1      : b4a5b34a9e711420743f49e6833241d17c61fb3c
 NAME      : 2099.9.b4a5b34
 ARCHNAME  : linux/x86_64_openmp
 FC        : /cm/shared/languages/GCC-6.1/bin/gfortran
 BLASLIB   : -lblas
 id        : simonbennie

 Nodes     nprocs
 node32-002    1

 Using customized tuning parameters: mindgm=1; mindgv=20; mindgc=4; mindgr=1; noblas=0; minvec=7
 default implementation of scratch files=df  

 memory,500,m
 geomtyp=xyz
 nosym
 noorient
 geometry={
 C          0.00000        0.00000        0.00000
 C          0.00000        0.00000        1.53307
 O          1.40344        0.00000        1.86307
 C          1.76314        0.00000        3.22887
 H         -1.02289        0.00000       -0.39176
 H          0.51995       -0.88625       -0.37815
 H          0.51995        0.88625       -0.37815
 H          2.85677        0.00000        3.25413
 H          1.40708       -0.89217        3.76475
 H          1.40708        0.89217        3.76475
 C         -0.69252       -1.26694        2.06222
 C         -0.69252        1.26694        2.06222
 H         -0.15366       -2.16088        1.72982
 H         -0.15366        2.16088        1.72982
 H         -1.72011       -1.32515        1.68649
 H         -1.72011        1.32515        1.68649
 H         -0.74365       -1.28188        3.15638
 H         -0.74365        1.28188        3.15638
 }
 basis={ default,sto-3g }
 {uks,B,direct;wf,50,1,0}
 {ibba,bonds=1}

 Variables initialized (895), CPU time= 0.00 sec
 Commands  initialized (725), CPU time= 0.02 sec, 591 directives.
 Default parameters read. Elapsed time= 0.12 sec

 Checking input...
 Passed
1


                                         ***  PROGRAM SYSTEM MOLPRO  ***
                                       Copyright, TTI GmbH Stuttgart, 2015
                                    Version 2099.9 linked May 26 2017 16:03:21


 **********************************************************************************************************************************
 LABEL *                                                                                 
  64 bit serial version                                                                  DATE: 09-Jun-17          TIME: 01:29:01  
 **********************************************************************************************************************************

 SHA1:             b4a5b34a9e711420743f49e6833241d17c61fb3c
 **********************************************************************************************************************************
 SETTING GEOMTYP        =    XYZ

 Variable memory set to  500000000 words,  buffer space 

 ZSYMEL=NOSYM

 SETTING BASIS          =    STO-3G


 Recomputing integrals since basis changed


 Using spherical harmonics

 Library entry C      S STO-3G               selected for orbital group  1
 Library entry C      P STO-3G               selected for orbital group  1
 Library entry O      S STO-3G               selected for orbital group  2
 Library entry O      P STO-3G               selected for orbital group  2
 Library entry H      S STO-3G               selected for orbital group  4


 PROGRAM * SEWARD (Integral evaluation for generally contracted gaussian basis sets)     Author: Roland Lindh, 1990

 Geometry written to block  1 of record 700


 Point group  C1  



 ATOMIC COORDINATES

 NR  ATOM    CHARGE       X              Y              Z

   1  C       6.00    0.000000000    0.000000000    0.000000000
   2  C       6.00    0.000000000    0.000000000    2.897082430
   3  O       8.00    2.652117232    0.000000000    3.520692051
   4  C       6.00    3.331851719    0.000000000    6.101679992
   5  H       1.00   -1.932981956    0.000000000   -0.740319107
   6  H       1.00    0.982563098   -1.674769778   -0.714599934
   7  H       1.00    0.982563098    1.674769778   -0.714599934
   8  H       1.00    5.398512901    0.000000000    6.149414474
   9  H       1.00    2.658995835   -1.685956957    7.114346427
  10  H       1.00    2.658995835    1.685956957    7.114346427
  11  C       6.00   -1.308673136   -2.394169616    3.897031009
  12  C       6.00   -1.308673136    2.394169616    3.897031009
  13  H       1.00   -0.290375316   -4.083471388    3.268886045
  14  H       1.00   -0.290375316    4.083471388    3.268886045
  15  H       1.00   -3.250536804   -2.504170574    3.187004212
  16  H       1.00   -3.250536804    2.504170574    3.187004212
  17  H       1.00   -1.405294833   -2.422402125    5.964693745
  18  H       1.00   -1.405294833    2.422402125    5.964693745

 Bond lengths in Bohr (Angstrom)

 1-2  2.897082430  1-5  2.069901355  1-6  2.069042560  1-7  2.069042560  2-3  2.724447609
     ( 1.533070000)     ( 1.095344626)     ( 1.094890171)     ( 1.094890171)     ( 1.441715587)

  2-11  2.905954351   2-12  2.905954351   3- 4  2.668995640   4- 8  2.067212379   4- 9  2.078624355
       ( 1.537764818)       ( 1.537764818)       ( 1.412371669)       ( 1.093921681)       ( 1.099960639)

  4-10  2.078624355  11-13  2.070081404  11-15  2.070524757  11-17  2.070111596  12-14  2.070081404
       ( 1.099960639)       ( 1.095439904)       ( 1.095674516)       ( 1.095455880)       ( 1.095439904)

 12-16  2.070524757  12-18  2.070111596
       ( 1.095674516)       ( 1.095455880)

 Bond angles

  1- 2- 3  103.23196371   1- 2-11  110.12706952   1- 2-12  110.12706952   2- 1- 5  110.95650426

  2- 1- 6  110.20481748   2- 1- 7  110.20481748   2- 3- 4  117.98647004   2-11-13  110.26679927

  2-11-15  110.37287188   2-11-17  112.08316935   2-12-14  110.26679927   2-12-16  110.37287188

  2-12-18  112.08316935   3- 2-11  111.07703285   3- 2-12  111.07703285   3- 4- 8  106.07765410

  3- 4- 9  112.87219182   3- 4-10  112.87219182   5- 1- 6  108.65976572   5- 1- 7  108.65976572

  6- 1- 7  108.08288210   8- 4- 9  108.20190897   8- 4-10  108.20190897   9- 4-10  108.40564999

 11- 2-12  110.95103964  13-11-15  108.29648994  13-11-17  108.35544687  14-12-16  108.29648994

 14-12-18  108.35544687  15-11-17  107.33851825  16-12-18  107.33851825

 NUCLEAR CHARGE:                   50
 NUMBER OF PRIMITIVE AOS:         126
 NUMBER OF SYMMETRY AOS:          126
 NUMBER OF CONTRACTIONS:           42   (  42A   )
 NUMBER OF CORE ORBITALS:           6   (   6A   )
 NUMBER OF VALENCE ORBITALS:       36   (  36A   )


 NUCLEAR REPULSION ENERGY  270.15500869


 Eigenvalues of metric

         1 0.207E+00 0.226E+00 0.228E+00 0.234E+00 0.307E+00 0.355E+00 0.359E+00 0.362E+00


 Contracted 2-electron integrals neglected if value below      1.0D-11
 AO integral compression algorithm  1   Integral accuracy      1.0D-11

     2.884 MB (compressed) written to integral file ( 84.3%)


 NUMBER OF SORTED TWO-ELECTRON INTEGRALS:     408156.     BUFFER LENGTH:  32768
 NUMBER OF SEGMENTS:   1  SEGMENT LENGTH:     408156      RECORD LENGTH: 524288

 Memory used in sort:       0.97 MW

 SORT1 READ      453477. AND WROTE      382834. INTEGRALS IN      2 RECORDS. CPU TIME:     0.01 SEC, REAL TIME:     0.03 SEC
 SORT2 READ      382834. AND WROTE      408156. INTEGRALS IN     11 RECORDS. CPU TIME:     0.03 SEC, REAL TIME:     0.04 SEC

 FILE SIZES:   FILE 1:    33.2 MBYTE,  FILE 4:     8.4 MBYTE,   TOTAL:     41.6 MBYTE

 OPERATOR DM      FOR CENTER  0  COORDINATES:    0.000000    0.000000    0.000000


 **********************************************************************************************************************************
 DATASETS  * FILE   NREC   LENGTH (MB)   RECORD NAMES
              1      19       31.98       500      610      700      900      950      970     1000      129      960     1100   
                                          VAR    BASINP    GEOM    SYMINP    ZMAT    AOBASIS   BASIS     P2S    ABASIS      S 
                                         1400     1410     1200     1210     1080     1600     1650     1300     1700   
                                           T        V       H0       H01     AOSYM     SMH    MOLCAS    ERIS     OPER   

 PROGRAMS   *        TOTAL       INT
 CPU TIMES  *         0.91      0.76
 REAL TIME  *         2.64 SEC
 DISK USED  *        42.19 MB      
 **********************************************************************************************************************************

 Density functional group B=B88
 Functional: B88(Automatically generated (new) B88)                            Gradient terms: 1
 Use grid at  1800.2

 Functional: B88                       Factor:  1.0000

 Generated new metagrid on record  1800.2 with target accuracy 1.0D-06 and 66012 points in CPU time    2.0
 Computed new grid on record 1800.1 in CPU time    2.3
   38106 words reserved for DFT integration

 PROGRAM * UKS-SCF (Unrestricted Kohn-Sham)     Authors: W. Meyer, H.-J. Werner, P.J. Knowles, 1993

 NUMBER OF ELECTRONS:      25+   25-    SPACE SYMMETRY=1    SPIN SYMMETRY: Singlet 
 CONVERGENCE THRESHOLDS:    1.00E-05 (Density)    1.00E-06 (Energy)
 MAX. NUMBER OF ITERATIONS:       60
 INTERPOLATION TYPE:            DIIS
 INTERPOLATION STEPS:              2 (START)      1 (STEP)
 LEVEL SHIFTS:                 -0.20 (ALPHA)  -0.20 (BETA) 



 Use fine grid record 1800.2 for energy threshold  1.0D-06
 Orbital guess generated from atomic densities. Full valence occupancy:   25

 Molecular orbital dump at record        2200.2

 Initial alpha occupation  25
 Initial beta  occupation  25

 ITERATION    DDIFF          GRAD             ENERGY        2-EL.EN.            DIPOLE MOMENTS         DIIS
    1      0.000D+00      0.000D+00      -267.35329980    822.907733   -0.86789    0.00000    0.80155    0
    2      0.560D-01      0.179D-01      -267.74353565    799.022857   -0.18750    0.00000    0.00481    1
    3      0.960D-02      0.389D-02      -267.76043547    802.646440   -0.29667    0.00000    0.18041    2
    4      0.107D-02      0.368D-03      -267.76066277    802.620222   -0.30630    0.00000    0.18622    3
    5      0.380D-03      0.124D-03      -267.76069313    802.609882   -0.30556    0.00000    0.18932    4
    6      0.168D-03      0.318D-04      -267.76069613    802.608964   -0.30303    0.00000    0.18902    5
    7      0.392D-04      0.145D-04      -267.76069638    802.609235   -0.30406    0.00000    0.18981    6
    8      0.121D-04      0.365D-05      -267.76069640    802.609076   -0.30375    0.00000    0.18964    6
    9      0.190D-05      0.423D-06      -267.76069640    802.609151   -0.30376    0.00000    0.18966    6
   10      0.667D-06      0.221D-06      -267.76069640    802.609128   -0.30376    0.00000    0.18965    7

 Final alpha occupancy:  25
 Final beta  occupancy:  25

 !UKS STATE 1.1 Energy               -267.760696401034
 Nuclear energy                       270.15500869
 One-electron energy                 -900.78096808
 Two-electron energy                  401.30456377
 Density functional                   -38.43930078     B88=-38.43930078
 Virial quotient                       -1.01032640
 !UKS STATE 1.1 Dipole moment          -0.30375561     0.00000000     0.18965066
 Dipole moment /Debye                  -0.77201918     0.00000000     0.48201232

 Orbital energies for positive spin:

         1.1          2.1          3.1          4.1          5.1          6.1          7.1          8.1          9.1         10.1
    -18.477792    -9.762876    -9.743511    -9.703532    -9.701787    -9.701705    -0.823637    -0.636899    -0.548327    -0.545771

        11.1         12.1         13.1         14.1         15.1         16.1         17.1         18.1         19.1         20.1
     -0.522116    -0.404180    -0.346224    -0.324991    -0.320922    -0.304107    -0.285697    -0.270853    -0.261773    -0.248022

        21.1         22.1         23.1         24.1         25.1         26.1         27.1
     -0.245277    -0.216022    -0.211014    -0.094678    -0.028651     0.271285     0.350202

 Orbital energies for negative spin:

         1.1          2.1          3.1          4.1          5.1          6.1          7.1          8.1          9.1         10.1
    -18.477792    -9.762876    -9.743511    -9.703532    -9.701787    -9.701705    -0.823637    -0.636899    -0.548327    -0.545771

        11.1         12.1         13.1         14.1         15.1         16.1         17.1         18.1         19.1         20.1
     -0.522116    -0.404180    -0.346224    -0.324991    -0.320922    -0.304107    -0.285697    -0.270853    -0.261773    -0.248022

        21.1         22.1         23.1         24.1         25.1         26.1         27.1
     -0.245277    -0.216022    -0.211014    -0.094678    -0.028651     0.271285     0.350202

 HOMO     25.1    -0.028651 =      -0.7796eV
 LUMO     26.1     0.271285 =       7.3820eV
 LUMO-HOMO         0.299936 =       8.1617eV

 EXPECTATION VALUE OF S**2:             0.00000000

 Natural orbitals saved to record    2200.2 (Orbital set 3)

 Orbital spaces for UNO-CAS (Min. occupation: 0.020  Max. occupation: 1.980):

 Closed:       25
 Active:        0


 **********************************************************************************************************************************
 DATASETS  * FILE   NREC   LENGTH (MB)   RECORD NAMES
              1      20       34.09       500      610      700      900      950      970     1000      129      960     1100   
                                          VAR    BASINP    GEOM    SYMINP    ZMAT    AOBASIS   BASIS     P2S    ABASIS      S 
                                         1400     1410     1200     1210     1080     1600     1650     1300     1700     1800   
                                           T        V       H0       H01     AOSYM     SMH    MOLCAS    ERIS     OPER     GRID   

              2       5        3.13       700     1000      520     1800     2200   
                                         GEOM     BASIS   MCVARS    GRID      UKS  

 PROGRAMS   *        TOTAL       UKS       INT
 CPU TIMES  *         9.48      8.57      0.76
 REAL TIME  *        15.60 SEC
 DISK USED  *        42.19 MB      
 **********************************************************************************************************************************


 PROGRAM * Intrinsic Basis Bonding Analysis (IBBA)          Author: G. Knizia

 Molecular orbitals read from record     2200.2  Type=UKS/ALPHA (state 1.1)
 Fock matrix read from record            2200.2  Type=UKS/TOTAL (state 1.1)
 Orbital energies read from record       2200.2  Type=UKS/ALPHA (state 1.1)
 Density matrix read from record         2200.2  Type=UKS/CHARGE (state 1.1)

 Number of core orbitals:           6 (   6 )
 Number of closed-shell orbitals:  19 (  19 )

 Basis set MINAO-AUTO-PP generated.      Number of basis functions:   42 

 Polarized AO type:                A = (O Ot + (1-O)(1-Ot)) P12
 Orthogonalization method:         Symmetric (Loewdin)
 Localization functional:          L = sum[A,i] <i|n_A|i>^4 -> max

 Localization group 1:  25 orbitals, occupancy  2.000
 Iterative localization: IB/PM,    7 iter; Final gradient 0.44E-08

 Bond order analysis:       [THRPRINT= 0.020]

   CEN ATOM   CEN ATOM     WIBERG.BO      RENORM.BO
     1   C  -   2   C       0.989904       0.987593
     1   C  -   5   H       0.968547       0.989261
     1   C  -   6   H       0.965810       0.986548
     1   C  -   7   H       0.965810       0.986548

     2   C  -   1   C       0.989904       0.987593
     2   C  -  12   C       0.985153       0.959843
     2   C  -  11   C       0.985153       0.959843
     2   C  -   3   O       0.980578       0.961958

     3   O  -   4   C       1.028027       1.017680
     3   O  -   2   C       0.980578       0.961958
     3   O  -   9   H       0.033610       0.019746
     3   O  -  10   H       0.033610       0.019746
     3   O  -  11   C       0.027910       0.014766
     3   O  -  12   C       0.027910       0.014766

     4   C  -   3   O       1.028027       1.017680
     4   C  -   8   H       0.956148       0.972222
     4   C  -   9   H       0.951941       0.938346
     4   C  -  10   H       0.951941       0.938346

     5   H  -   1   C       0.968547       0.989261

     6   H  -   1   C       0.965810       0.986548

     7   H  -   1   C       0.965810       0.986548

     8   H  -   4   C       0.956148       0.972222

     9   H  -   4   C       0.951941       0.938346
     9   H  -   3   O       0.033610       0.019746

    10   H  -   4   C       0.951941       0.938346
    10   H  -   3   O       0.033610       0.019746

    11   C  -   2   C       0.985153       0.959843
    11   C  -  17   H       0.967362       0.985239
    11   C  -  13   H       0.966406       0.986321
    11   C  -  15   H       0.966253       0.988634
    11   C  -   3   O       0.027910       0.014766

    12   C  -   2   C       0.985153       0.959843
    12   C  -  18   H       0.967362       0.985239
    12   C  -  14   H       0.966406       0.986321
    12   C  -  16   H       0.966253       0.988634
    12   C  -   3   O       0.027910       0.014766

    13   H  -  11   C       0.966406       0.986321

    14   H  -  12   C       0.966406       0.986321

    15   H  -  11   C       0.966253       0.988634

    16   H  -  12   C       0.966253       0.988634

    17   H  -  11   C       0.967362       0.985239

    18   H  -  12   C       0.967362       0.985239


 Valency analysis:

   CEN ATOM   TOT.VALENCE
     1   C       3.942049
     2   C       3.970883
     3   O       2.191098
     4   C       3.911648
     5   H       0.985346
     6   H       0.983889
     7   H       0.983889
     8   H       0.983234
     9   H       0.990016
    10   H       0.990016
    11   C       3.943305
    12   C       3.943305
    13   H       0.984588
    14   H       0.984588
    15   H       0.984625
    16   H       0.984625
    17   H       0.986057
    18   H       0.986057

 Total charge composition:

   CEN ATOM         s          p       ELECTRONS ->P.CHARGE
     1   C       2.99584    3.36743      6.36328   -0.36328
     2   C       2.94900    2.92712      5.87612    0.12388
     3   O       3.66274    4.54528      8.20802   -0.20802
     4   C       3.00060    3.23557      6.23617   -0.23617
     5   H       0.87895                 0.87895    0.12105
     6   H       0.87307                 0.87307    0.12693
     7   H       0.87307                 0.87307    0.12693
     8   H       0.87052                 0.87052    0.12948
     9   H       0.90008                 0.90008    0.09992
    10   H       0.90008                 0.90008    0.09992
    11   C       2.99653    3.38002      6.37655   -0.37655
    12   C       2.99653    3.38002      6.37655   -0.37655
    13   H       0.87585                 0.87585    0.12415
    14   H       0.87585                 0.87585    0.12415
    15   H       0.87600                 0.87600    0.12400
    16   H       0.87600                 0.87600    0.12400
    17   H       0.88192                 0.88192    0.11808
    18   H       0.88192                 0.88192    0.11808

 Total charge composition, AO contributions:

   CEN ATOM SHL      SPHERICAL COMPONENTS
     1   C  1s       1.99208
     1   C  2s       1.00376
     1   C  2p       1.15693    1.16488    1.04563

     2   C  1s       1.99348
     2   C  2s       0.95552
     2   C  2p       0.86700    1.03101    1.02910

     3   O  1s       1.99747
     3   O  2s       1.66527
     3   O  2p       1.31148    1.90282    1.33098

     4   C  1s       1.99262
     4   C  2s       1.00798
     4   C  2p       1.15610    1.16676    0.91271

     5   H  1s       0.87895

     6   H  1s       0.87307

     7   H  1s       0.87307

     8   H  1s       0.87052

     9   H  1s       0.90008

    10   H  1s       0.90008

    11   C  1s       1.99214
    11   C  2s       1.00440
    11   C  2p       1.14071    1.09364    1.14567

    12   C  1s       1.99214
    12   C  2s       1.00440
    12   C  2p       1.14071    1.09364    1.14567

    13   H  1s       0.87585

    14   H  1s       0.87585

    15   H  1s       0.87600

    16   H  1s       0.87600

    17   H  1s       0.88192

    18   H  1s       0.88192

 Summary of localized orbital composition:   [THRPRINT= 0.020]

   ORB  GRP  ORB.ENERGY      CENTERS/CHARGES
     1   1   -18.320501      O  3   2.000
     2   1    -9.672364      C  2   2.000
     3   1    -9.639122      C  4   2.000
     4   1    -9.594371      C  1   2.000
     5   1    -9.593249      C 12   2.000
     6   1    -9.593249      C 11   2.000
     7   1    -0.548781      O  3   1.161   C  4   0.830
     8   1    -0.515184      O  3   1.168   C  2   0.805   (other: 0.026)
     9   1    -0.426671      C  2   0.994   C  1   0.983   (other: 0.024)
    10   1    -0.425877      C 11   0.996   C  2   0.990
    11   1    -0.425877      C 12   0.996   C  2   0.990
    12   1    -0.390441      C  4   1.129   H  8   0.861
    13   1    -0.388760      C  4   1.119   H 10   0.880
    14   1    -0.388760      C  4   1.119   H  9   0.880
    15   1    -0.381799      O  3   1.966   (other: 0.034)
    16   1    -0.376481      C  1   1.117   H  5   0.872
    17   1    -0.375931      C 12   1.116   H 18   0.875
    18   1    -0.375931      C 11   1.116   H 17   0.875
    19   1    -0.375777      C 11   1.120   H 15   0.869
    20   1    -0.375777      C 12   1.120   H 16   0.869
    21   1    -0.372664      C 12   1.122   H 14   0.869
    22   1    -0.372664      C 11   1.122   H 13   0.869
    23   1    -0.370402      C  1   1.125   H  6   0.866
    24   1    -0.370402      C  1   1.125   H  7   0.866
    25   1    -0.059325      O  3   1.903   C  2   0.022   C  4   0.020   (other: 0.055)

 Localized orbitals saved to record      2200.2  (orbital set 4)


 **********************************************************************************************************************************
 DATASETS  * FILE   NREC   LENGTH (MB)   RECORD NAMES
              1      20       34.09       500      610      700      900      950      970     1000      129      960     1100   
                                          VAR    BASINP    GEOM    SYMINP    ZMAT    AOBASIS   BASIS     P2S    ABASIS      S 
                                         1400     1410     1200     1210     1080     1600     1650     1300     1700     1800   
                                           T        V       H0       H01     AOSYM     SMH    MOLCAS    ERIS     OPER     GRID   

              2       5        3.15       700     1000      520     1800     2200   
                                         GEOM     BASIS   MCVARS    GRID      UKS  

 PROGRAMS   *        TOTAL      IBBA       UKS       INT
 CPU TIMES  *         9.52      0.04      8.57      0.76
 REAL TIME  *        15.77 SEC
 DISK USED  *        42.19 MB      
 **********************************************************************************************************************************
 Molecular orbitals read from record     2200.2  Type=UKS/LOCAL(IBO)  
 Occupation numbers read from record     2200.2  Type=UKS/LOCAL(IBO)  
 Orbital energies read from record       2200.2  Type=UKS/LOCAL(IBO)  
 Redundancy group numbers read from rec  2200.2  Type=UKS/BETA (state 1.1)

 IBBA/STO-3G energy=      0.000000000000

        UKS-SCF 
   -267.76069640
 **********************************************************************************************************************************
 Molpro calculation terminated
