
 Primary working directories    : /local
 Secondary working directories  : /local
 Wavefunction directory         : /local/
 Main file repository           : /local/

 SHA1      : b4a5b34a9e711420743f49e6833241d17c61fb3c
 NAME      : 2099.9.b4a5b34
 ARCHNAME  : linux/x86_64_openmp
 FC        : /cm/shared/languages/GCC-6.1/bin/gfortran
 BLASLIB   : -lblas
 id        : simonbennie

 Nodes     nprocs
 node35-034    1

 Using customized tuning parameters: mindgm=1; mindgv=20; mindgc=4; mindgr=1; noblas=0; minvec=7
 default implementation of scratch files=df  

 memory,500,m
 geomtyp=xyz
 nosym
 noorient
 geometry={
 C         -1.53233        0.02247        0.00000
 C         -0.00192        0.01421        0.00000
 O          0.37239        1.40356        0.00000
 H          1.34248        1.44036        0.00000
 H         -1.92991       -0.99819        0.00000
 H         -1.90797        0.54382       -0.88653
 H         -1.90797        0.54382        0.88653
 C          0.54303       -0.66466       -1.26580
 C          0.54303       -0.66466        1.26580
 H          0.17836       -0.14752       -2.15943
 H          0.17836       -0.14752        2.15943
 H          0.23752       -1.71600       -1.32280
 H          0.23752       -1.71600        1.32280
 H          1.64084       -0.63767       -1.28032
 H          1.64084       -0.63767        1.28032
 }
 basis={ default,tzvp }
 {uks,VWN,direct;wf,42,1,0}
 {ibba,bonds=1}

 Variables initialized (895), CPU time= 0.00 sec
 Commands  initialized (725), CPU time= 0.02 sec, 591 directives.
 Default parameters read. Elapsed time= 0.13 sec

 Checking input...
 Passed
1


                                         ***  PROGRAM SYSTEM MOLPRO  ***
                                       Copyright, TTI GmbH Stuttgart, 2015
                                    Version 2099.9 linked May 26 2017 16:03:21


 **********************************************************************************************************************************
 LABEL *                                                                                 
  64 bit serial version                                                                  DATE: 12-Jun-17          TIME: 16:45:39  
 **********************************************************************************************************************************

 SHA1:             b4a5b34a9e711420743f49e6833241d17c61fb3c
 **********************************************************************************************************************************
 SETTING GEOMTYP        =    XYZ

 Variable memory set to  500000000 words,  buffer space 

 ZSYMEL=NOSYM

 SETTING BASIS          =    TZVP


 Recomputing integrals since basis changed


 Using spherical harmonics

 Library entry C      S def2-TZVP            selected for orbital group  1
 Library entry C      P def2-TZVP            selected for orbital group  1
 Library entry C      D def2-TZVP            selected for orbital group  1
 Library entry C      F def2-TZVP            selected for orbital group  1
 Library entry O      S def2-TZVP            selected for orbital group  2
 Library entry O      P def2-TZVP            selected for orbital group  2
 Library entry O      D def2-TZVP            selected for orbital group  2
 Library entry O      F def2-TZVP            selected for orbital group  2
 Library entry H      S def2-TZVP            selected for orbital group  3
 Library entry H      P def2-TZVP            selected for orbital group  3


 PROGRAM * SEWARD (Integral evaluation for generally contracted gaussian basis sets)     Author: Roland Lindh, 1990

 Geometry written to block  1 of record 700


 Point group  C1  



 ATOMIC COORDINATES

 NR  ATOM    CHARGE       X              Y              Z

   1  C       6.00   -2.895684032    0.042462146    0.000000000
   2  C       6.00   -0.003628274    0.026853008    0.000000000
   3  O       8.00    0.703715112    2.652343999    0.000000000
   4  H       1.00    2.536919528    2.721885921    0.000000000
   5  H       1.00   -3.647001345   -1.886305720    0.000000000
   6  H       1.00   -3.605540754    1.027670861   -1.675298901
   7  H       1.00   -3.605540754    1.027670861    1.675298901
   8  C       6.00    1.026177977   -1.256025366   -2.392015328
   9  C       6.00    1.026177977   -1.256025366    2.392015328
  10  H       1.00    0.337051552   -0.278772398   -4.080731285
  11  H       1.00    0.337051552   -0.278772398    4.080731285
  12  H       1.00    0.448847749   -3.242770030   -2.499729718
  13  H       1.00    0.448847749   -3.242770030    2.499729718
  14  H       1.00    3.100738214   -1.205021658   -2.419454152
  15  H       1.00    3.100738214   -1.205021658    2.419454152

 Bond lengths in Bohr (Angstrom)

 1-2  2.892097881  1-5  2.069933136  1-6  2.069096224  1-7  2.069096224  2-3  2.719106031
     ( 1.530432290)     ( 1.095361444)     ( 1.094918569)     ( 1.094918569)     ( 1.438888946)

  2- 8  2.903104402   2- 9  2.903104402   3- 4  1.834522965   8-10  2.069222119   8-12  2.071730422
       ( 1.536256691)       ( 1.536256691)       ( 0.970787746)       ( 1.094985190)       ( 1.096312526)

  8-14  2.075368508   9-11  2.069222119   9-13  2.071730422   9-15  2.075368508
       ( 1.098237719)       ( 1.094985190)       ( 1.096312526)       ( 1.098237719)

 Bond angles

  1-2-3  104.76902697   1-2-8  110.92255387   1-2-9  110.92255387   2-1-5  110.97328220

  2- 1- 6  110.22090701   2- 1- 7  110.22090701   2- 3- 4  107.25071562   2- 8-10  110.21836376

  2- 8-12  111.57747468   2- 8-14  110.77023896   2- 9-11  110.21836376   2- 9-13  111.57747468

  2- 9-15  110.77023896   3- 2- 8  109.53648747   3- 2- 9  109.53648747   5- 1- 6  108.61190457

  5- 1- 7  108.61190457   6- 1- 7  108.12870271   8- 2- 9  110.96453384  10- 8-12  108.52192632

 10- 8-14  108.08997829  11- 9-13  108.52192632  11- 9-15  108.08997829  12- 8-14  107.54424578

 13- 9-15  107.54424578

 NUCLEAR CHARGE:                   42
 NUMBER OF PRIMITIVE AOS:         335
 NUMBER OF SYMMETRY AOS:          310
 NUMBER OF CONTRACTIONS:          215   ( 215A   )
 NUMBER OF CORE ORBITALS:           5   (   5A   )
 NUMBER OF VALENCE ORBITALS:       30   (  30A   )


 NUCLEAR REPULSION ENERGY  198.77359127


 Eigenvalues of metric

         1 0.262E-03 0.510E-03 0.539E-03 0.594E-03 0.697E-03 0.755E-03 0.210E-02 0.239E-02


 Contracted 2-electron integrals neglected if value below      1.0D-11
 AO integral compression algorithm  1   Integral accuracy      1.0D-11

     977.797 MB (compressed) written to integral file ( 41.7%)


 NUMBER OF SORTED TWO-ELECTRON INTEGRALS:  269595810.     BUFFER LENGTH:  32768
 NUMBER OF SEGMENTS:  17  SEGMENT LENGTH:   15999762      RECORD LENGTH: 524288

 Memory used in sort:      16.56 MW

 SORT1 READ   292827432. AND WROTE   238500613. INTEGRALS IN    690 RECORDS. CPU TIME:     4.03 SEC, REAL TIME:     9.05 SEC
 SORT2 READ   238500613. AND WROTE   269595810. INTEGRALS IN   3730 RECORDS. CPU TIME:     6.23 SEC, REAL TIME:    57.32 SEC

 FILE SIZES:   FILE 1:  1009.7 MBYTE,  FILE 4:  2894.1 MBYTE,   TOTAL:   3903.8 MBYTE

 OPERATOR DM      FOR CENTER  0  COORDINATES:    0.000000    0.000000    0.000000


 **********************************************************************************************************************************
 DATASETS  * FILE   NREC   LENGTH (MB)   RECORD NAMES
              1      19      926.27       500      610      700      900      950      970     1000      129      960     1100   
                                          VAR    BASINP    GEOM    SYMINP    ZMAT    AOBASIS   BASIS     P2S    ABASIS      S 
                                         1400     1410     1200     1210     1080     1600     1650     1300     1700   
                                           T        V       H0       H01     AOSYM     SMH    MOLCAS    ERIS     OPER   

 PROGRAMS   *        TOTAL       INT
 CPU TIMES  *        28.13     27.98
 REAL TIME  *        89.05 SEC
 DISK USED  *         3.90 GB      
 **********************************************************************************************************************************

 Density functional group VWN=VWN5
 Functional: VWN5(Automatically generated (new) VWN5)                          Gradient terms: 0
 Use grid at  1800.2

 Functional: VWN5                      Factor:  1.0000

 Generated new metagrid on record  1800.2 with target accuracy 1.0D-06 and 54596 points in CPU time    1.7
 Computed new grid on record 1800.1 in CPU time    1.9
   93304 words reserved for DFT integration

 PROGRAM * UKS-SCF (Unrestricted Kohn-Sham)     Authors: W. Meyer, H.-J. Werner, P.J. Knowles, 1993

 NUMBER OF ELECTRONS:      21+   21-    SPACE SYMMETRY=1    SPIN SYMMETRY: Singlet 
 CONVERGENCE THRESHOLDS:    1.00E-05 (Density)    1.00E-06 (Energy)
 MAX. NUMBER OF ITERATIONS:       60
 INTERPOLATION TYPE:            DIIS
 INTERPOLATION STEPS:              2 (START)      1 (STEP)
 LEVEL SHIFTS:                 -0.20 (ALPHA)  -0.20 (BETA) 



 Use fine grid record 1800.2 for energy threshold  1.0D-06
 Orbital guess generated from atomic densities. Full valence occupancy:   21

 Molecular orbital dump at record        2200.2

 Initial alpha occupation  21
 Initial beta  occupation  21

 ITERATION    DDIFF          GRAD             ENERGY        2-EL.EN.            DIPOLE MOMENTS         DIIS
    1      0.000D+00      0.000D+00      -200.95800323    547.124689    2.08053    7.36555    0.00000    0
    2      0.744D+00      0.956D-02      -198.98419846    644.996394   -0.76984   -7.14248   -0.00000    1
    3      0.133D-01      0.176D-01      -202.89100074    611.094729   -0.13933   -2.87785   -0.00000    2
    4      0.686D-02      0.542D-02      -203.38370147    597.034959    0.08536   -1.30298    0.00000    3
    5      0.417D-02      0.161D-02      -203.44331327    592.805538    0.24273   -0.37266    0.00000    4
    6      0.596D-02      0.349D-03      -203.44893208    591.207235    0.31032   -0.07241    0.00000    5
    7      0.626D-02      0.254D-03      -203.45111677    591.732859    0.30493   -0.05601    0.00000    6
    8      0.325D-02      0.112D-03      -203.45154142    591.865771    0.31400   -0.06225    0.00000    7
    9      0.143D-02      0.316D-04      -203.45160046    591.992424    0.30793   -0.06581    0.00000    8
   10      0.547D-03      0.137D-04      -203.45160971    591.951635    0.30724   -0.06814    0.00000    7
   11      0.267D-03      0.520D-05      -203.45161165    591.964890    0.30813   -0.06509    0.00000    8
   12      0.963D-04      0.177D-05      -203.45161189    591.960169    0.30719   -0.06586    0.00000    8
   13      0.272D-04      0.999D-06      -203.45161193    591.962296    0.30735   -0.06596    0.00000    8
   14      0.110D-04      0.321D-06      -203.45161194    591.961796    0.30727   -0.06577    0.00000    9
   15      0.311D-05      0.910D-07      -203.45161194    591.961802    0.30723   -0.06580   -0.00000    8
   16      0.102D-05      0.395D-07      -203.45161194    591.961723    0.30723   -0.06579   -0.00000    8

 Final alpha occupancy:  21
 Final beta  occupancy:  21

 !UKS STATE 1.1 Energy               -203.451611937929
 Nuclear energy                       198.77359127
 One-electron energy                 -695.63947487
 Two-electron energy                  295.98086160
 Density functional                    -2.56658994     VWN5=-2.56658994
 Virial quotient                       -0.97434737
 !UKS STATE 1.1 Dipole moment           0.30723192    -0.06579344    -0.00000000
 Dipole moment /Debye                   0.78085451    -0.16721928    -0.00000000

 Orbital energies for positive spin:

         1.1          2.1          3.1          4.1          5.1          6.1          7.1          8.1          9.1         10.1
    -16.776679    -8.397145    -8.352848    -8.352816    -8.350685    -0.632911    -0.442156    -0.354825    -0.352350    -0.246937

        11.1         12.1         13.1         14.1         15.1         16.1         17.1         18.1         19.1         20.1
     -0.191255    -0.164934    -0.164574    -0.121307    -0.109458    -0.088121    -0.064805    -0.061024    -0.056902    -0.026939

        21.1         22.1         23.1
      0.025692     0.112759     0.162515

 Orbital energies for negative spin:

         1.1          2.1          3.1          4.1          5.1          6.1          7.1          8.1          9.1         10.1
    -16.776679    -8.397145    -8.352848    -8.352816    -8.350685    -0.632911    -0.442156    -0.354825    -0.352350    -0.246937

        11.1         12.1         13.1         14.1         15.1         16.1         17.1         18.1         19.1         20.1
     -0.191255    -0.164934    -0.164574    -0.121307    -0.109458    -0.088121    -0.064805    -0.061024    -0.056902    -0.026939

        21.1         22.1         23.1
      0.025692     0.112759     0.162515

 HOMO    -21.1     0.025692 =       0.6991eV
 LUMO    -22.1     0.112759 =       3.0683eV
 LUMO-HOMO         0.087067 =       2.3692eV

 EXPECTATION VALUE OF S**2:             0.00000000

 Natural orbitals saved to record    2200.2 (Orbital set 3)

 Orbital spaces for UNO-CAS (Min. occupation: 0.020  Max. occupation: 1.980):

 Closed:       21
 Active:        0


 **********************************************************************************************************************************
 DATASETS  * FILE   NREC   LENGTH (MB)   RECORD NAMES
              1      20      928.02       500      610      700      900      950      970     1000      129      960     1100   
                                          VAR    BASINP    GEOM    SYMINP    ZMAT    AOBASIS   BASIS     P2S    ABASIS      S 
                                         1400     1410     1200     1210     1080     1600     1650     1300     1700     1800   
                                           T        V       H0       H01     AOSYM     SMH    MOLCAS    ERIS     OPER     GRID   

              2       5        4.89       700     1000      520     1800     2200   
                                         GEOM     BASIS   MCVARS    GRID      UKS  

 PROGRAMS   *        TOTAL       UKS       INT
 CPU TIMES  *       106.43     78.30     27.98
 REAL TIME  *       198.47 SEC
 DISK USED  *         3.90 GB      
 **********************************************************************************************************************************


 PROGRAM * Intrinsic Basis Bonding Analysis (IBBA)          Author: G. Knizia

 Molecular orbitals read from record     2200.2  Type=UKS/ALPHA (state 1.1)
 Fock matrix read from record            2200.2  Type=UKS/TOTAL (state 1.1)
 Orbital energies read from record       2200.2  Type=UKS/ALPHA (state 1.1)
 Density matrix read from record         2200.2  Type=UKS/CHARGE (state 1.1)

 Number of core orbitals:           5 (   5 )
 Number of closed-shell orbitals:  16 (  16 )

 Basis set MINAO-AUTO-PP generated.      Number of basis functions:   35 

 Polarized AO type:                A = (O Ot + (1-O)(1-Ot)) P12
 Orthogonalization method:         Symmetric (Loewdin)
 Localization functional:          L = sum[A,i] <i|n_A|i>^4 -> max

 Localization group 1:  21 orbitals, occupancy  2.000
 Iterative localization: IB/PM,    8 iter; Final gradient 0.31E-09

 Bond order analysis:       [THRPRINT= 0.020]

   CEN ATOM   CEN ATOM     WIBERG.BO      RENORM.BO
     1   C  -   2   C       0.983325       0.996612
     1   C  -   5   H       0.956475       0.968954
     1   C  -   6   H       0.949725       0.954234
     1   C  -   7   H       0.949725       0.954234
     1   C  -   3   O       0.031385       0.017504
     1   C  -   4   H       0.025335       0.031282
     1   C  -  15   H       0.020806       0.021784
     1   C  -  14   H       0.020806       0.021784

     2   C  -   8   C       0.988112       0.973007
     2   C  -   9   C       0.988112       0.973007
     2   C  -   1   C       0.983325       0.996612
     2   C  -   3   O       0.973326       0.945045

     3   O  -   2   C       0.973326       0.945045
     3   O  -   4   H       0.910706       0.934219
     3   O  -   9   C       0.052459       0.028263
     3   O  -   8   C       0.052459       0.028263
     3   O  -  13   H       0.036274       0.025551
     3   O  -  12   H       0.036274       0.025551
     3   O  -   1   C       0.031385       0.017504
     3   O  -   5   H       0.021742       0.016573

     4   H  -   3   O       0.910706       0.934219
     4   H  -   1   C       0.025335       0.031282

     5   H  -   1   C       0.956475       0.968954
     5   H  -   3   O       0.021742       0.016573

     6   H  -   1   C       0.949725       0.954234
     6   H  -   9   C       0.023542       0.024236

     7   H  -   1   C       0.949725       0.954234
     7   H  -   8   C       0.023542       0.024236

     8   C  -   2   C       0.988112       0.973007
     8   C  -  10   H       0.950752       0.953863
     8   C  -  14   H       0.949816       0.958896
     8   C  -  12   H       0.947604       0.950819
     8   C  -   3   O       0.052459       0.028263
     8   C  -   7   H       0.023542       0.024236
     8   C  -  11   H       0.023267       0.023936

     9   C  -   2   C       0.988112       0.973007
     9   C  -  11   H       0.950752       0.953863
     9   C  -  15   H       0.949816       0.958896
     9   C  -  13   H       0.947604       0.950819
     9   C  -   3   O       0.052459       0.028263
     9   C  -   6   H       0.023542       0.024236
     9   C  -  10   H       0.023267       0.023936

    10   H  -   8   C       0.950752       0.953863
    10   H  -   9   C       0.023267       0.023936

    11   H  -   9   C       0.950752       0.953863
    11   H  -   8   C       0.023267       0.023936

    12   H  -   8   C       0.947604       0.950819
    12   H  -   3   O       0.036274       0.025551

    13   H  -   9   C       0.947604       0.950819
    13   H  -   3   O       0.036274       0.025551

    14   H  -   8   C       0.949816       0.958896
    14   H  -   1   C       0.020806       0.021784

    15   H  -   9   C       0.949816       0.958896
    15   H  -   1   C       0.020806       0.021784


 Valency analysis:

   CEN ATOM   TOT.VALENCE
     1   C       3.968325
     2   C       3.950859
     3   O       2.139586
     4   H       0.960305
     5   H       0.996131
     6   H       0.995990
     7   H       0.995990
     8   C       3.969216
     9   C       3.969216
    10   H       0.995961
    11   H       0.995961
    12   H       0.996455
    13   H       0.996455
    14   H       0.997248
    15   H       0.997248

 Total charge composition:

   CEN ATOM         s          p       ELECTRONS ->P.CHARGE
     1   C       2.94759    3.26586      6.21345   -0.21345
     2   C       2.87179    2.86038      5.73217    0.26783
     3   O       3.57756    4.74713      8.32469   -0.32469
     4   H       0.80076                 0.80076    0.19924
     5   H       0.93780                 0.93780    0.06220
     6   H       0.93667                 0.93667    0.06333
     7   H       0.93667                 0.93667    0.06333
     8   C       2.96462    3.26982      6.23444   -0.23444
     9   C       2.96462    3.26982      6.23444   -0.23444
    10   H       0.93645                 0.93645    0.06355
    11   H       0.93645                 0.93645    0.06355
    12   H       0.94046                 0.94046    0.05954
    13   H       0.94046                 0.94046    0.05954
    14   H       0.94754                 0.94754    0.05246
    15   H       0.94754                 0.94754    0.05246

 Total charge composition, AO contributions:

   CEN ATOM SHL      SPHERICAL COMPONENTS
     1   C  1s       1.99700
     1   C  2s       0.95059
     1   C  2p       1.02963    1.11285    1.12338

     2   C  1s       1.99773
     2   C  2s       0.87407
     2   C  2p       1.00729    0.84262    1.01047

     3   O  1s       1.99873
     3   O  2s       1.57884
     3   O  2p       1.36925    1.46820    1.90967

     4   H  1s       0.80076

     5   H  1s       0.93780

     6   H  1s       0.93667

     7   H  1s       0.93667

     8   C  1s       1.99705
     8   C  2s       0.96757
     8   C  2p       1.09652    1.10350    1.06980

     9   C  1s       1.99705
     9   C  2s       0.96757
     9   C  2p       1.09652    1.10350    1.06980

    10   H  1s       0.93645

    11   H  1s       0.93645

    12   H  1s       0.94046

    13   H  1s       0.94046

    14   H  1s       0.94754

    15   H  1s       0.94754

 Summary of localized orbital composition:   [THRPRINT= 0.020]

   ORB  GRP  ORB.ENERGY      CENTERS/CHARGES
     1   1   -16.676679      O  3   2.000
     2   1    -8.325840      C  2   2.000
     3   1    -8.268283      C  8   2.000
     4   1    -8.268283      C  9   2.000
     5   1    -8.265820      C  1   2.000
     6   1    -0.411481      O  3   1.226   C  2   0.748   (other: 0.026)
     7   1    -0.385638      O  3   1.213   H  4   0.770
     8   1    -0.267447      C  1   1.002   C  2   0.951   (other: 0.047)
     9   1    -0.265212      C  8   1.025   C  2   0.945   (other: 0.030)
    10   1    -0.265212      C  9   1.025   C  2   0.945   (other: 0.030)
    11   1    -0.191078      C  9   1.042   H 15   0.934   (other: 0.024)
    12   1    -0.191078      C  8   1.042   H 14   0.934   (other: 0.024)
    13   1    -0.189687      C  8   1.058   H 12   0.920   (other: 0.022)
    14   1    -0.189687      C  9   1.058   H 13   0.920   (other: 0.022)
    15   1    -0.188836      O  3   1.964   (other: 0.036)
    16   1    -0.188072      C  1   1.054   H  5   0.924   (other: 0.022)
    17   1    -0.185470      C  9   1.062   H 11   0.920
    18   1    -0.185470      C  8   1.062   H 10   0.920
    19   1    -0.183906      C  1   1.061   H  7   0.920
    20   1    -0.183906      C  1   1.061   H  6   0.920
    21   1    -0.005909      O  3   1.910   C  2   0.027   (other: 0.063)

 Localized orbitals saved to record      2200.2  (orbital set 4)


 **********************************************************************************************************************************
 DATASETS  * FILE   NREC   LENGTH (MB)   RECORD NAMES
              1      20      928.02       500      610      700      900      950      970     1000      129      960     1100   
                                          VAR    BASINP    GEOM    SYMINP    ZMAT    AOBASIS   BASIS     P2S    ABASIS      S 
                                         1400     1410     1200     1210     1080     1600     1650     1300     1700     1800   
                                           T        V       H0       H01     AOSYM     SMH    MOLCAS    ERIS     OPER     GRID   

              2       5        5.27       700     1000      520     1800     2200   
                                         GEOM     BASIS   MCVARS    GRID      UKS  

 PROGRAMS   *        TOTAL      IBBA       UKS       INT
 CPU TIMES  *       106.50      0.07     78.30     27.98
 REAL TIME  *       198.65 SEC
 DISK USED  *         3.90 GB      
 **********************************************************************************************************************************
 Molecular orbitals read from record     2200.2  Type=UKS/LOCAL(IBO)  
 Occupation numbers read from record     2200.2  Type=UKS/LOCAL(IBO)  
 Orbital energies read from record       2200.2  Type=UKS/LOCAL(IBO)  
 Redundancy group numbers read from rec  2200.2  Type=UKS/BETA (state 1.1)

 IBBA/TZVP energy=      0.000000000000

        UKS-SCF 
   -203.45161194
 **********************************************************************************************************************************
 Molpro calculation terminated
