
 Primary working directories    : /local
 Secondary working directories  : /local
 Wavefunction directory         : /local/
 Main file repository           : /local/

 SHA1      : b4a5b34a9e711420743f49e6833241d17c61fb3c
 NAME      : 2099.9.b4a5b34
 ARCHNAME  : linux/x86_64_openmp
 FC        : /cm/shared/languages/GCC-6.1/bin/gfortran
 BLASLIB   : -lblas
 id        : simonbennie

 Nodes     nprocs
 node35-012    1

 Using customized tuning parameters: mindgm=1; mindgv=20; mindgc=4; mindgr=1; noblas=0; minvec=7
 default implementation of scratch files=df  

 memory,500,m
 geomtyp=xyz
 nosym
 noorient
 geometry={
 C         -1.53233        0.02247        0.00000
 C         -0.00192        0.01421        0.00000
 O          0.37239        1.40356        0.00000
 H          1.34248        1.44036        0.00000
 H         -1.92991       -0.99819        0.00000
 H         -1.90797        0.54382       -0.88653
 H         -1.90797        0.54382        0.88653
 C          0.54303       -0.66466       -1.26580
 C          0.54303       -0.66466        1.26580
 H          0.17836       -0.14752       -2.15943
 H          0.17836       -0.14752        2.15943
 H          0.23752       -1.71600       -1.32280
 H          0.23752       -1.71600        1.32280
 H          1.64084       -0.63767       -1.28032
 H          1.64084       -0.63767        1.28032
 }
 basis={ default,qzvp }
 {uks,PBE0,direct;wf,42,1,0}
 {ibba,bonds=1}

 Variables initialized (895), CPU time= 0.01 sec
 Commands  initialized (725), CPU time= 0.01 sec, 591 directives.
 Default parameters read. Elapsed time= 4.60 sec

 Checking input...
 Passed
1


                                         ***  PROGRAM SYSTEM MOLPRO  ***
                                       Copyright, TTI GmbH Stuttgart, 2015
                                    Version 2099.9 linked May 26 2017 16:03:21


 **********************************************************************************************************************************
 LABEL *                                                                                 
  64 bit serial version                                                                  DATE: 12-Jun-17          TIME: 18:28:37  
 **********************************************************************************************************************************

 SHA1:             b4a5b34a9e711420743f49e6833241d17c61fb3c
 **********************************************************************************************************************************
 SETTING GEOMTYP        =    XYZ

 Variable memory set to  500000000 words,  buffer space 

 ZSYMEL=NOSYM

 SETTING BASIS          =    QZVP


 Recomputing integrals since basis changed


 Using spherical harmonics

 Library entry C      S def2-QZVP            selected for orbital group  1
 Library entry C      P def2-QZVP            selected for orbital group  1
 Library entry C      D def2-QZVP            selected for orbital group  1
 Library entry C      F def2-QZVP            selected for orbital group  1
 Library entry C      G def2-QZVP            selected for orbital group  1
 Library entry O      S def2-QZVP            selected for orbital group  2
 Library entry O      P def2-QZVP            selected for orbital group  2
 Library entry O      D def2-QZVP            selected for orbital group  2
 Library entry O      F def2-QZVP            selected for orbital group  2
 Library entry O      G def2-QZVP            selected for orbital group  2
 Library entry H      S def2-QZVP            selected for orbital group  3
 Library entry H      P def2-QZVP            selected for orbital group  3
 Library entry H      D def2-QZVP            selected for orbital group  3
 Library entry H      F def2-QZVP            selected for orbital group  3


 PROGRAM * SEWARD (Integral evaluation for generally contracted gaussian basis sets)     Author: Roland Lindh, 1990

 Geometry written to block  1 of record 700


 Point group  C1  



 ATOMIC COORDINATES

 NR  ATOM    CHARGE       X              Y              Z

   1  C       6.00   -2.895684032    0.042462146    0.000000000
   2  C       6.00   -0.003628274    0.026853008    0.000000000
   3  O       8.00    0.703715112    2.652343999    0.000000000
   4  H       1.00    2.536919528    2.721885921    0.000000000
   5  H       1.00   -3.647001345   -1.886305720    0.000000000
   6  H       1.00   -3.605540754    1.027670861   -1.675298901
   7  H       1.00   -3.605540754    1.027670861    1.675298901
   8  C       6.00    1.026177977   -1.256025366   -2.392015328
   9  C       6.00    1.026177977   -1.256025366    2.392015328
  10  H       1.00    0.337051552   -0.278772398   -4.080731285
  11  H       1.00    0.337051552   -0.278772398    4.080731285
  12  H       1.00    0.448847749   -3.242770030   -2.499729718
  13  H       1.00    0.448847749   -3.242770030    2.499729718
  14  H       1.00    3.100738214   -1.205021658   -2.419454152
  15  H       1.00    3.100738214   -1.205021658    2.419454152

 Bond lengths in Bohr (Angstrom)

 1-2  2.892097881  1-5  2.069933136  1-6  2.069096224  1-7  2.069096224  2-3  2.719106031
     ( 1.530432290)     ( 1.095361444)     ( 1.094918569)     ( 1.094918569)     ( 1.438888946)

  2- 8  2.903104402   2- 9  2.903104402   3- 4  1.834522965   8-10  2.069222119   8-12  2.071730422
       ( 1.536256691)       ( 1.536256691)       ( 0.970787746)       ( 1.094985190)       ( 1.096312526)

  8-14  2.075368508   9-11  2.069222119   9-13  2.071730422   9-15  2.075368508
       ( 1.098237719)       ( 1.094985190)       ( 1.096312526)       ( 1.098237719)

 Bond angles

  1-2-3  104.76902697   1-2-8  110.92255387   1-2-9  110.92255387   2-1-5  110.97328220

  2- 1- 6  110.22090701   2- 1- 7  110.22090701   2- 3- 4  107.25071562   2- 8-10  110.21836376

  2- 8-12  111.57747468   2- 8-14  110.77023896   2- 9-11  110.21836376   2- 9-13  111.57747468

  2- 9-15  110.77023896   3- 2- 8  109.53648747   3- 2- 9  109.53648747   5- 1- 6  108.61190457

  5- 1- 7  108.61190457   6- 1- 7  108.12870271   8- 2- 9  110.96453384  10- 8-12  108.52192632

 10- 8-14  108.08997829  11- 9-13  108.52192632  11- 9-15  108.08997829  12- 8-14  107.54424578

 13- 9-15  107.54424578

 NUCLEAR CHARGE:                   42
 NUMBER OF PRIMITIVE AOS:         840
 NUMBER OF SYMMETRY AOS:          715
 NUMBER OF CONTRACTIONS:          585   ( 585A   )
 NUMBER OF CORE ORBITALS:           5   (   5A   )
 NUMBER OF VALENCE ORBITALS:       30   (  30A   )


 NUCLEAR REPULSION ENERGY  198.77359127


 Eigenvalues of metric

         1 0.447E-04 0.459E-04 0.470E-04 0.743E-04 0.823E-04 0.917E-04 0.943E-04 0.107E-03


 Contracted 2-electron integrals neglected if value below      1.0D-12
 AO integral compression algorithm  1   Integral accuracy      1.0D-12

     40752.906 MB (compressed) written to integral file ( 33.4%)


 NUMBER OF SORTED TWO-ELECTRON INTEGRALS:14689922715.     BUFFER LENGTH:  32768
 NUMBER OF SEGMENTS: 184  SEGMENT LENGTH:   79999773      RECORD LENGTH: 262144

 Memory used in sort:      80.29 MW

 SORT1 READ 15248138275. AND WROTE 10587813328. INTEGRALS IN  60679 RECORDS. CPU TIME:   192.16 SEC, REAL TIME:  1927.17 SEC
 SORT2 READ 10587813328. AND WROTE 14689922715. INTEGRALS IN 155460 RECORDS. CPU TIME:   319.30 SEC, REAL TIME:  2476.08 SEC

 FILE SIZES:   FILE 1: 40795.6 MBYTE,  FILE 4:127253.1 MBYTE,   TOTAL: 168048.8 MBYTE

 OPERATOR DM      FOR CENTER  0  COORDINATES:    0.000000    0.000000    0.000000


 **********************************************************************************************************************************
 DATASETS  * FILE   NREC   LENGTH (MB)   RECORD NAMES
              1      19    37754.71       500      610      700      900      950      970     1000      129      960     1100   
                                          VAR    BASINP    GEOM    SYMINP    ZMAT    AOBASIS   BASIS     P2S    ABASIS      S 
                                         1400     1410     1200     1210     1080     1600     1650     1300     1700   
                                           T        V       H0       H01     AOSYM     SMH    MOLCAS    ERIS     OPER   

 PROGRAMS   *        TOTAL       INT
 CPU TIMES  *      1212.92   1212.77
 REAL TIME  *      5192.80 SEC
 DISK USED  *       168.05 GB      
 **********************************************************************************************************************************

 Density functional group PBE0=PBEX+PBEC
 Functional: PBEX(Automatically generated (new) PBEX)                          Gradient terms: 1
 Functional: PBEC(Automatically generated (new) PBEC)                          Gradient terms: 1
 Use grid at  1800.2


 Exact exchange will be calculated, factor:  0.2500

 Functional: PBEX                      Factor:  0.7500
 Functional: PBEC                      Factor:  1.0000

 Generated new metagrid on record  1800.2 with target accuracy 1.0D-06 and 58228 points in CPU time    1.7
 Computed new grid on record 1800.1 in CPU time    1.9
  469144 words reserved for DFT integration

 PROGRAM * UKS-SCF (Unrestricted Kohn-Sham)     Authors: W. Meyer, H.-J. Werner, P.J. Knowles, 1993

 NUMBER OF ELECTRONS:      21+   21-    SPACE SYMMETRY=1    SPIN SYMMETRY: Singlet 
 CONVERGENCE THRESHOLDS:    1.00E-05 (Density)    1.00E-06 (Energy)
 MAX. NUMBER OF ITERATIONS:       60
 INTERPOLATION TYPE:            DIIS
 INTERPOLATION STEPS:              2 (START)      1 (STEP)
 LEVEL SHIFTS:                 -0.20 (ALPHA)  -0.20 (BETA) 



 Use fine grid record 1800.2 for energy threshold  1.0D-06
 Orbital guess generated from atomic densities. Full valence occupancy:   21

 Molecular orbital dump at record        2200.2

 Initial alpha occupation  21
 Initial beta  occupation  21

 ITERATION    DDIFF          GRAD             ENERGY        2-EL.EN.            DIPOLE MOMENTS         DIIS
    1      0.000D+00      0.000D+00      -233.32149096    619.223594    0.68864   -0.81297    0.00000    0
    2      0.112D-02      0.104D-02      -233.47719967    601.726266    0.25914   -0.48453    0.00000    1
    3      0.301D-03      0.492D-03      -233.50254821    605.973691    0.35975   -0.56981    0.00000    2
    4      0.138D-03      0.742D-04      -233.50348806    605.836359    0.34785   -0.52790    0.00000    3
    5      0.142D-03      0.348D-04      -233.50383034    605.762356    0.34384   -0.52958    0.00000    4
    6      0.139D-03      0.106D-04      -233.50388949    605.729723    0.34149   -0.52423    0.00000    5
    7      0.405D-04      0.251D-05      -233.50389220    605.705874    0.34028   -0.52377    0.00000    6
    8      0.108D-04      0.140D-05      -233.50389263    605.713604    0.34032   -0.52398    0.00000    7
    9      0.482D-05      0.235D-06      -233.50389267    605.713146    0.34026   -0.52383    0.00000    6
   10      0.737D-06      0.723D-07      -233.50389267    605.712730    0.34020   -0.52388    0.00000    7

 Final alpha occupancy:  21
 Final beta  occupancy:  21

 !UKS STATE 1.1 Energy               -233.503892667898
 Nuclear energy                       198.77359127
 One-electron energy                 -709.49582983
 Two-electron energy                  302.85636496
 Density functional                   -25.63801908     PBEX=-32.36065489 PBEC= -1.36752791
 Virial quotient                       -1.00563752
 !UKS STATE 1.1 Dipole moment           0.34020085    -0.52388449     0.00000000
 Dipole moment /Debye                   0.86464767    -1.33149435     0.00000000

 Orbital energies for positive spin:

         1.1          2.1          3.1          4.1          5.1          6.1          7.1          8.1          9.1         10.1
    -19.200680   -10.285892   -10.214412   -10.214408   -10.209036    -1.044995    -0.810896    -0.712248    -0.711177    -0.585761

        11.1         12.1         13.1         14.1         15.1         16.1         17.1         18.1         19.1         20.1
     -0.504843    -0.466777    -0.463784    -0.425804    -0.410504    -0.391667    -0.378078    -0.368153    -0.360542    -0.332400

        21.1         22.1         23.1
     -0.286276     0.016120     0.052557

 Orbital energies for negative spin:

         1.1          2.1          3.1          4.1          5.1          6.1          7.1          8.1          9.1         10.1
    -19.200678   -10.285893   -10.214411   -10.214406   -10.209034    -1.044992    -0.810895    -0.712246    -0.711175    -0.585760

        11.1         12.1         13.1         14.1         15.1         16.1         17.1         18.1         19.1         20.1
     -0.504842    -0.466776    -0.463784    -0.425803    -0.410503    -0.391666    -0.378078    -0.368151    -0.360541    -0.332399

        21.1         22.1         23.1
     -0.286273     0.016119     0.052556

 HOMO    -21.1    -0.286273 =      -7.7899eV
 LUMO    -22.1     0.016119 =       0.4386eV
 LUMO-HOMO         0.302392 =       8.2285eV

 EXPECTATION VALUE OF S**2:             0.00000000

 Occupation number threshold for canonical orbitals:  1.999000 (occupied),  0.001000 (virtual)

 Number of pseudo-canonical orbitals per symmetry:   21
 Number of active natural orbitals per symmetry:      0

 Natural orbitals saved to record    2200.2 (Orbital set 3)

 Orbital spaces for UNO-CAS (Min. occupation: 0.020  Max. occupation: 1.980):

 Closed:       21
 Active:        0


 **********************************************************************************************************************************
 DATASETS  * FILE   NREC   LENGTH (MB)   RECORD NAMES
              1      20    37756.57       500      610      700      900      950      970     1000      129      960     1100   
                                          VAR    BASINP    GEOM    SYMINP    ZMAT    AOBASIS   BASIS     P2S    ABASIS      S 
                                         1400     1410     1200     1210     1080     1600     1650     1300     1700     1800   
                                           T        V       H0       H01     AOSYM     SMH    MOLCAS    ERIS     OPER     GRID   

              2       5       16.83       700     1000      520     1800     2200   
                                         GEOM     BASIS   MCVARS    GRID      UKS  

 PROGRAMS   *        TOTAL       UKS       INT
 CPU TIMES  *      5268.11   4055.19   1212.77
 REAL TIME  *      9545.04 SEC
 DISK USED  *       168.05 GB      
 **********************************************************************************************************************************


 PROGRAM * Intrinsic Basis Bonding Analysis (IBBA)          Author: G. Knizia

 Molecular orbitals read from record     2200.2  Type=UKS/ALPHA (state 1.1)
 Fock matrix read from record            2200.2  Type=UKS/TOTAL (state 1.1)
 Orbital energies read from record       2200.2  Type=UKS/ALPHA (state 1.1)
 Density matrix read from record         2200.2  Type=UKS/CHARGE (state 1.1)

 Number of core orbitals:           5 (   5 )
 Number of closed-shell orbitals:  16 (  16 )

 Basis set MINAO-AUTO-PP generated.      Number of basis functions:   35 

 Polarized AO type:                A = (O Ot + (1-O)(1-Ot)) P12
 Orthogonalization method:         Symmetric (Loewdin)
 Localization functional:          L = sum[A,i] <i|n_A|i>^4 -> max

 Localization group 1:  21 orbitals, occupancy  2.000
 Iterative localization: IB/PM,    7 iter; Final gradient 0.41E-08

 Bond order analysis:       [THRPRINT= 0.020]

   CEN ATOM   CEN ATOM     WIBERG.BO      RENORM.BO
     1   C  -   2   C       0.996684       0.993309
     1   C  -   5   H       0.961935       0.987285
     1   C  -   6   H       0.957038       0.981650
     1   C  -   7   H       0.957038       0.981650

     2   C  -   1   C       0.996684       0.993309
     2   C  -   9   C       0.995411       0.975986
     2   C  -   8   C       0.995411       0.975986
     2   C  -   3   O       0.933425       0.949019

     3   O  -   2   C       0.933425       0.949019
     3   O  -   4   H       0.859134       0.976806
     3   O  -   9   C       0.027260       0.013942
     3   O  -   8   C       0.027260       0.013942

     4   H  -   3   O       0.859134       0.976806

     5   H  -   1   C       0.961935       0.987285

     6   H  -   1   C       0.957038       0.981650

     7   H  -   1   C       0.957038       0.981650

     8   C  -   2   C       0.995411       0.975986
     8   C  -  14   H       0.961422       0.982341
     8   C  -  12   H       0.957764       0.981833
     8   C  -  10   H       0.957540       0.981517
     8   C  -   3   O       0.027260       0.013942

     9   C  -   2   C       0.995411       0.975986
     9   C  -  15   H       0.961422       0.982341
     9   C  -  13   H       0.957764       0.981833
     9   C  -  11   H       0.957540       0.981517
     9   C  -   3   O       0.027260       0.013942

    10   H  -   8   C       0.957540       0.981517

    11   H  -   9   C       0.957540       0.981517

    12   H  -   8   C       0.957764       0.981833

    13   H  -   9   C       0.957764       0.981833

    14   H  -   8   C       0.961422       0.982341

    15   H  -   9   C       0.961422       0.982341


 Valency analysis:

   CEN ATOM   TOT.VALENCE
     1   C       3.932358
     2   C       3.931093
     3   O       1.913435
     4   H       0.878374
     5   H       0.980464
     6   H       0.977755
     7   H       0.977755
     8   C       3.935065
     9   C       3.935065
    10   H       0.977772
    11   H       0.977772
    12   H       0.979624
    13   H       0.979624
    14   H       0.982062
    15   H       0.982062

 Total charge composition:

   CEN ATOM         s          p       ELECTRONS ->P.CHARGE
     1   C       3.04604    3.38462      6.43065   -0.43065
     2   C       2.94004    2.80353      5.74357    0.25643
     3   O       3.64908    4.92798      8.57706   -0.57706
     4   H       0.65125                 0.65125    0.34875
     5   H       0.86023                 0.86023    0.13977
     6   H       0.85085                 0.85085    0.14915
     7   H       0.85085                 0.85085    0.14915
     8   C       3.05215    3.39139      6.44354   -0.44354
     9   C       3.05215    3.39139      6.44354   -0.44354
    10   H       0.85091                 0.85091    0.14909
    11   H       0.85091                 0.85091    0.14909
    12   H       0.85725                 0.85725    0.14275
    13   H       0.85725                 0.85725    0.14275
    14   H       0.86607                 0.86607    0.13393
    15   H       0.86607                 0.86607    0.13393

 Total charge composition, AO contributions:

   CEN ATOM SHL      SPHERICAL COMPONENTS
     1   C  1s       1.99105
     1   C  2s       1.05498
     1   C  2p       1.04061    1.16595    1.17806

     2   C  1s       1.99270
     2   C  2s       0.94734
     2   C  2p       1.00690    0.78723    1.00941

     3   O  1s       1.99712
     3   O  2s       1.65196
     3   O  2p       1.47886    1.49205    1.95708

     4   H  1s       0.65125

     5   H  1s       0.86023

     6   H  1s       0.85085

     7   H  1s       0.85085

     8   C  1s       1.99115
     8   C  2s       1.06099
     8   C  2p       1.14751    1.14734    1.09653

     9   C  1s       1.99115
     9   C  2s       1.06099
     9   C  2p       1.14751    1.14734    1.09653

    10   H  1s       0.85091

    11   H  1s       0.85091

    12   H  1s       0.85725

    13   H  1s       0.85725

    14   H  1s       0.86607

    15   H  1s       0.86607

 Summary of localized orbital composition:   [THRPRINT= 0.020]

   ORB  GRP  ORB.ENERGY      CENTERS/CHARGES
     1   1   -19.038220      O  3   2.000
     2   1   -10.193269      C  2   2.000
     3   1   -10.098084      C  8   2.000
     4   1   -10.098084      C  9   2.000
     5   1   -10.091907      C  1   2.000
     6   1    -0.781750      O  3   1.350   H  4   0.640
     7   1    -0.737677      O  3   1.284   C  2   0.698
     8   1    -0.599943      O  3   1.982
     9   1    -0.591345      C  9   1.008   C  2   0.977
    10   1    -0.591345      C  8   1.008   C  2   0.977
    11   1    -0.590636      C  1   0.991   C  2   0.986   (other: 0.023)
    12   1    -0.520656      C  8   1.138   H 12   0.848
    13   1    -0.520656      C  9   1.138   H 13   0.848
    14   1    -0.518865      C  8   1.129   H 14   0.859
    15   1    -0.518865      C  9   1.129   H 15   0.859
    16   1    -0.516319      C  1   1.133   H  5   0.853
    17   1    -0.514765      C  9   1.147   H 11   0.843
    18   1    -0.514765      C  8   1.147   H 10   0.843
    19   1    -0.510079      C  1   1.146   H  6   0.843
    20   1    -0.510079      C  1   1.146   H  7   0.843
    21   1    -0.321138      O  3   1.957   (other: 0.043)

 Localized orbitals saved to record      2200.2  (orbital set 4)


 **********************************************************************************************************************************
 DATASETS  * FILE   NREC   LENGTH (MB)   RECORD NAMES
              1      20    37756.57       500      610      700      900      950      970     1000      129      960     1100   
                                          VAR    BASINP    GEOM    SYMINP    ZMAT    AOBASIS   BASIS     P2S    ABASIS      S 
                                         1400     1410     1200     1210     1080     1600     1650     1300     1700     1800   
                                           T        V       H0       H01     AOSYM     SMH    MOLCAS    ERIS     OPER     GRID   

              2       5       19.57       700     1000      520     1800     2200   
                                         GEOM     BASIS   MCVARS    GRID      UKS  

 PROGRAMS   *        TOTAL      IBBA       UKS       INT
 CPU TIMES  *      5268.58      0.47   4055.19   1212.77
 REAL TIME  *      9545.86 SEC
 DISK USED  *       168.05 GB      
 **********************************************************************************************************************************
 Molecular orbitals read from record     2200.2  Type=UKS/LOCAL(IBO)  
 Occupation numbers read from record     2200.2  Type=UKS/LOCAL(IBO)  
 Orbital energies read from record       2200.2  Type=UKS/LOCAL(IBO)  
 Redundancy group numbers read from rec  2200.2  Type=UKS/BETA (state 1.1)

 IBBA/QZVP energy=      0.000000000000

        UKS-SCF 
   -233.50389267
 **********************************************************************************************************************************
 Molpro calculation terminated
