
 Primary working directories    : /tmp/sb13343
 Secondary working directories  : /tmp/sb13343
 Wavefunction directory         : /panfs/panasas01/chem/sb13343/wfu/
 Main file repository           : /tmp/sb13343/

 SHA1      : b4a5b34a9e711420743f49e6833241d17c61fb3c
 NAME      : 2099.9.b4a5b34
 ARCHNAME  : linux/x86_64_openmp
 FC        : /cm/shared/languages/GCC-6.1/bin/gfortran
 BLASLIB   : -lblas
 id        : simonbennie

 Nodes     nprocs
 node32-036    1

 Using customized tuning parameters: mindgm=1; mindgv=20; mindgc=4; mindgr=1; noblas=0; minvec=7
 default implementation of scratch files=df  

 memory,500,m
 geomtyp=xyz
 nosym
 noorient
 geometry={
 C          0.00000        0.00000        0.00000
 C          0.00000        0.00000        1.53307
 O          1.40344        0.00000        1.86307
 C          1.76314        0.00000        3.22887
 H         -1.02289        0.00000       -0.39176
 H          0.51995       -0.88625       -0.37815
 H          0.51995        0.88625       -0.37815
 H          2.85677        0.00000        3.25413
 H          1.40708       -0.89217        3.76475
 H          1.40708        0.89217        3.76475
 C         -0.69252       -1.26694        2.06222
 C         -0.69252        1.26694        2.06222
 H         -0.15366       -2.16088        1.72982
 H         -0.15366        2.16088        1.72982
 H         -1.72011       -1.32515        1.68649
 H         -1.72011        1.32515        1.68649
 H         -0.74365       -1.28188        3.15638
 H         -0.74365        1.28188        3.15638
 }
 basis={ default,svp }
 {uks,LYP88,direct;wf,50,1,0}
 {ibba,bonds=1}

 Variables initialized (895), CPU time= 0.01 sec
 Commands  initialized (725), CPU time= 0.01 sec, 591 directives.
 Default parameters read. Elapsed time= 0.08 sec

 Checking input...
 Passed
1


                                         ***  PROGRAM SYSTEM MOLPRO  ***
                                       Copyright, TTI GmbH Stuttgart, 2015
                                    Version 2099.9 linked May 26 2017 16:03:21


 **********************************************************************************************************************************
 LABEL *                                                                                 
  64 bit serial version                                                                  DATE: 09-Jun-17          TIME: 01:56:13  
 **********************************************************************************************************************************

 SHA1:             b4a5b34a9e711420743f49e6833241d17c61fb3c
 **********************************************************************************************************************************
 SETTING GEOMTYP        =    XYZ

 Variable memory set to  500000000 words,  buffer space 

 ZSYMEL=NOSYM

 SETTING BASIS          =    SVP


 Recomputing integrals since basis changed


 Using spherical harmonics

 Library entry C      S def2-SVP             selected for orbital group  1
 Library entry C      P def2-SVP             selected for orbital group  1
 Library entry C      D def2-SVP             selected for orbital group  1
 Library entry O      S def2-SVP             selected for orbital group  2
 Library entry O      P def2-SVP             selected for orbital group  2
 Library entry O      D def2-SVP             selected for orbital group  2
 Library entry H      S def2-SVP             selected for orbital group  4
 Library entry H      P def2-SVP             selected for orbital group  4


 PROGRAM * SEWARD (Integral evaluation for generally contracted gaussian basis sets)     Author: Roland Lindh, 1990

 Geometry written to block  1 of record 700


 Point group  C1  



 ATOMIC COORDINATES

 NR  ATOM    CHARGE       X              Y              Z

   1  C       6.00    0.000000000    0.000000000    0.000000000
   2  C       6.00    0.000000000    0.000000000    2.897082430
   3  O       8.00    2.652117232    0.000000000    3.520692051
   4  C       6.00    3.331851719    0.000000000    6.101679992
   5  H       1.00   -1.932981956    0.000000000   -0.740319107
   6  H       1.00    0.982563098   -1.674769778   -0.714599934
   7  H       1.00    0.982563098    1.674769778   -0.714599934
   8  H       1.00    5.398512901    0.000000000    6.149414474
   9  H       1.00    2.658995835   -1.685956957    7.114346427
  10  H       1.00    2.658995835    1.685956957    7.114346427
  11  C       6.00   -1.308673136   -2.394169616    3.897031009
  12  C       6.00   -1.308673136    2.394169616    3.897031009
  13  H       1.00   -0.290375316   -4.083471388    3.268886045
  14  H       1.00   -0.290375316    4.083471388    3.268886045
  15  H       1.00   -3.250536804   -2.504170574    3.187004212
  16  H       1.00   -3.250536804    2.504170574    3.187004212
  17  H       1.00   -1.405294833   -2.422402125    5.964693745
  18  H       1.00   -1.405294833    2.422402125    5.964693745

 Bond lengths in Bohr (Angstrom)

 1-2  2.897082430  1-5  2.069901355  1-6  2.069042560  1-7  2.069042560  2-3  2.724447609
     ( 1.533070000)     ( 1.095344626)     ( 1.094890171)     ( 1.094890171)     ( 1.441715587)

  2-11  2.905954351   2-12  2.905954351   3- 4  2.668995640   4- 8  2.067212379   4- 9  2.078624355
       ( 1.537764818)       ( 1.537764818)       ( 1.412371669)       ( 1.093921681)       ( 1.099960639)

  4-10  2.078624355  11-13  2.070081404  11-15  2.070524757  11-17  2.070111596  12-14  2.070081404
       ( 1.099960639)       ( 1.095439904)       ( 1.095674516)       ( 1.095455880)       ( 1.095439904)

 12-16  2.070524757  12-18  2.070111596
       ( 1.095674516)       ( 1.095455880)

 Bond angles

  1- 2- 3  103.23196371   1- 2-11  110.12706952   1- 2-12  110.12706952   2- 1- 5  110.95650426

  2- 1- 6  110.20481748   2- 1- 7  110.20481748   2- 3- 4  117.98647004   2-11-13  110.26679927

  2-11-15  110.37287188   2-11-17  112.08316935   2-12-14  110.26679927   2-12-16  110.37287188

  2-12-18  112.08316935   3- 2-11  111.07703285   3- 2-12  111.07703285   3- 4- 8  106.07765410

  3- 4- 9  112.87219182   3- 4-10  112.87219182   5- 1- 6  108.65976572   5- 1- 7  108.65976572

  6- 1- 7  108.08288210   8- 4- 9  108.20190897   8- 4-10  108.20190897   9- 4-10  108.40564999

 11- 2-12  110.95103964  13-11-15  108.29648994  13-11-17  108.35544687  14-12-16  108.29648994

 14-12-18  108.35544687  15-11-17  107.33851825  16-12-18  107.33851825

 NUCLEAR CHARGE:                   50
 NUMBER OF PRIMITIVE AOS:         234
 NUMBER OF SYMMETRY AOS:          228
 NUMBER OF CONTRACTIONS:          144   ( 144A   )
 NUMBER OF CORE ORBITALS:           6   (   6A   )
 NUMBER OF VALENCE ORBITALS:       36   (  36A   )


 NUCLEAR REPULSION ENERGY  270.15500869


 Eigenvalues of metric

         1 0.176E-02 0.508E-02 0.513E-02 0.102E-01 0.124E-01 0.215E-01 0.221E-01 0.252E-01


 Contracted 2-electron integrals neglected if value below      1.0D-11
 AO integral compression algorithm  1   Integral accuracy      1.0D-11

     186.384 MB (compressed) written to integral file ( 41.3%)


 NUMBER OF SORTED TWO-ELECTRON INTEGRALS:   54502020.     BUFFER LENGTH:  32768
 NUMBER OF SEGMENTS:   4  SEGMENT LENGTH:   15999503      RECORD LENGTH: 524288

 Memory used in sort:      16.56 MW

 SORT1 READ    56333432. AND WROTE    45703433. INTEGRALS IN    132 RECORDS. CPU TIME:     0.72 SEC, REAL TIME:     1.39 SEC
 SORT2 READ    45703433. AND WROTE    54502020. INTEGRALS IN    711 RECORDS. CPU TIME:     1.19 SEC, REAL TIME:     1.49 SEC

 FILE SIZES:   FILE 1:   217.4 MBYTE,  FILE 4:   553.7 MBYTE,   TOTAL:    771.1 MBYTE

 OPERATOR DM      FOR CENTER  0  COORDINATES:    0.000000    0.000000    0.000000


 **********************************************************************************************************************************
 DATASETS  * FILE   NREC   LENGTH (MB)   RECORD NAMES
              1      19      194.45       500      610      700      900      950      970     1000      129      960     1100   
                                          VAR    BASINP    GEOM    SYMINP    ZMAT    AOBASIS   BASIS     P2S    ABASIS      S 
                                         1400     1410     1200     1210     1080     1600     1650     1300     1700   
                                           T        V       H0       H01     AOSYM     SMH    MOLCAS    ERIS     OPER   

 PROGRAMS   *        TOTAL       INT
 CPU TIMES  *         7.24      7.10
 REAL TIME  *         9.40 SEC
 DISK USED  *       771.70 MB      
 **********************************************************************************************************************************

 Density functional group LYP88=LYP
 Functional: LYP(Automatically generated (new) LYP)                            Gradient terms: 1
 Use grid at  1800.2

 Functional: LYP                       Factor:  1.0000

 Generated new metagrid on record  1800.2 with target accuracy 1.0D-06 and 66012 points in CPU time    1.9
 Computed new grid on record 1800.1 in CPU time    2.2
  118710 words reserved for DFT integration

 PROGRAM * UKS-SCF (Unrestricted Kohn-Sham)     Authors: W. Meyer, H.-J. Werner, P.J. Knowles, 1993

 NUMBER OF ELECTRONS:      25+   25-    SPACE SYMMETRY=1    SPIN SYMMETRY: Singlet 
 CONVERGENCE THRESHOLDS:    1.00E-05 (Density)    1.00E-06 (Energy)
 MAX. NUMBER OF ITERATIONS:       60
 INTERPOLATION TYPE:            DIIS
 INTERPOLATION STEPS:              2 (START)      1 (STEP)
 LEVEL SHIFTS:                 -0.20 (ALPHA)  -0.20 (BETA) 



 Use fine grid record 1800.2 for energy threshold  1.0D-06
 Orbital guess generated from atomic densities. Full valence occupancy:   25

 Molecular orbital dump at record        2200.2

 Initial alpha occupation  25
 Initial beta  occupation  25

 ITERATION    DDIFF          GRAD             ENERGY        2-EL.EN.            DIPOLE MOMENTS         DIIS
    1      0.000D+00      0.000D+00      -232.91252568    723.954228    8.01934   -0.00000    1.08303    0
    2      0.242D+00      0.135D-01      -230.98037165    826.122955   -6.03532    0.00000    1.30289    1
    3      0.230D-01      0.231D-01      -234.85851218    786.611122   -2.33815    0.00000    0.43310    2
    4      0.101D-01      0.651D-02      -235.18879531    773.730772   -0.84251    0.00000    0.20426    3
    5      0.665D-02      0.207D-02      -235.23017198    770.862903   -0.21726   -0.00000    0.09490    4
    6      0.844D-02      0.517D-03      -235.23647614    768.477398    0.10956   -0.00000    0.08020    5
    7      0.237D-02      0.409D-03      -235.23828648    769.097334    0.07713   -0.00000    0.08801    6
    8      0.100D-02      0.156D-03      -235.23859946    769.336644    0.04601   -0.00000    0.11243    7
    9      0.599D-03      0.574D-04      -235.23867167    769.390536    0.02962    0.00000    0.11128    8
   10      0.256D-03      0.152D-04      -235.23868047    769.418095    0.03195    0.00000    0.11174    7
   11      0.749D-04      0.515D-05      -235.23868140    769.400602    0.03133   -0.00000    0.11309    8
   12      0.311D-04      0.356D-05      -235.23868164    769.408944    0.03109   -0.00000    0.11318    8
   13      0.197D-04      0.107D-05      -235.23868169    769.406883    0.03107    0.00000    0.11309    8
   14      0.775D-05      0.405D-06      -235.23868170    769.407201    0.03111    0.00000    0.11328    9
   15      0.316D-05      0.181D-06      -235.23868170    769.407178    0.03109   -0.00000    0.11333    8

 Final alpha occupancy:  25
 Final beta  occupancy:  25

 !UKS STATE 1.1 Energy               -235.238681701477
 Nuclear energy                       270.15500869
 One-electron energy                 -888.49708158
 Two-electron energy                  384.70358910
 Density functional                    -1.60019791     LYP=-1.60019791
 Virial quotient                       -0.92646441
 !UKS STATE 1.1 Dipole moment           0.03108804    -0.00000000     0.11332651
 Dipole moment /Debye                   0.07901274    -0.00000000     0.28802839

 Orbital energies for positive spin:

         1.1          2.1          3.1          4.1          5.1          6.1          7.1          8.1          9.1         10.1
    -16.608050    -8.244902    -8.240033    -8.211281    -8.210862    -8.205834    -0.596513    -0.409336    -0.317311    -0.307801

        11.1         12.1         13.1         14.1         15.1         16.1         17.1         18.1         19.1         20.1
     -0.280568    -0.187463    -0.156778    -0.140688    -0.137556    -0.110450    -0.090131    -0.070620    -0.048034    -0.040658

        21.1         22.1         23.1         24.1         25.1         26.1         27.1
     -0.027572    -0.021036    -0.020782     0.042808     0.083331     0.182274     0.218961

 Orbital energies for negative spin:

         1.1          2.1          3.1          4.1          5.1          6.1          7.1          8.1          9.1         10.1
    -16.608050    -8.244902    -8.240033    -8.211281    -8.210862    -8.205834    -0.596513    -0.409336    -0.317311    -0.307801

        11.1         12.1         13.1         14.1         15.1         16.1         17.1         18.1         19.1         20.1
     -0.280568    -0.187463    -0.156778    -0.140688    -0.137556    -0.110450    -0.090131    -0.070620    -0.048034    -0.040658

        21.1         22.1         23.1         24.1         25.1         26.1         27.1
     -0.027572    -0.021036    -0.020782     0.042808     0.083331     0.182274     0.218961

 HOMO     25.1     0.083331 =       2.2675eV
 LUMO     26.1     0.182274 =       4.9599eV
 LUMO-HOMO         0.098943 =       2.6924eV

 EXPECTATION VALUE OF S**2:            -0.00000000

 Natural orbitals saved to record    2200.2 (Orbital set 3)

 Orbital spaces for UNO-CAS (Min. occupation: 0.020  Max. occupation: 1.980):

 Closed:       25
 Active:        0


 **********************************************************************************************************************************
 DATASETS  * FILE   NREC   LENGTH (MB)   RECORD NAMES
              1      20      196.57       500      610      700      900      950      970     1000      129      960     1100   
                                          VAR    BASINP    GEOM    SYMINP    ZMAT    AOBASIS   BASIS     P2S    ABASIS      S 
                                         1400     1410     1200     1210     1080     1600     1650     1300     1700     1800   
                                           T        V       H0       H01     AOSYM     SMH    MOLCAS    ERIS     OPER     GRID   

              2       5        3.91       700     1000      520     1800     2200   
                                         GEOM     BASIS   MCVARS    GRID      UKS  

 PROGRAMS   *        TOTAL       UKS       INT
 CPU TIMES  *        54.81     47.57      7.10
 REAL TIME  *        57.96 SEC
 DISK USED  *       771.70 MB      
 **********************************************************************************************************************************


 PROGRAM * Intrinsic Basis Bonding Analysis (IBBA)          Author: G. Knizia

 Molecular orbitals read from record     2200.2  Type=UKS/ALPHA (state 1.1)
 Fock matrix read from record            2200.2  Type=UKS/TOTAL (state 1.1)
 Orbital energies read from record       2200.2  Type=UKS/ALPHA (state 1.1)
 Density matrix read from record         2200.2  Type=UKS/CHARGE (state 1.1)

 Number of core orbitals:           6 (   6 )
 Number of closed-shell orbitals:  19 (  19 )

 Basis set MINAO-AUTO-PP generated.      Number of basis functions:   42 

 Polarized AO type:                A = (O Ot + (1-O)(1-Ot)) P12
 Orthogonalization method:         Symmetric (Loewdin)
 Localization functional:          L = sum[A,i] <i|n_A|i>^4 -> max

 Localization group 1:  25 orbitals, occupancy  2.000
 Iterative localization: IB/PM,    8 iter; Final gradient 0.97E-09

 Bond order analysis:       [THRPRINT= 0.020]

   CEN ATOM   CEN ATOM     WIBERG.BO      RENORM.BO
     1   C  -   2   C       0.986097       0.995053
     1   C  -   5   H       0.953925       0.961464
     1   C  -   6   H       0.946976       0.948115
     1   C  -   7   H       0.946976       0.948115
     1   C  -   3   O       0.038917       0.022523

     2   C  -   1   C       0.986097       0.995053
     2   C  -  11   C       0.977821       0.967839
     2   C  -  12   C       0.977821       0.967839
     2   C  -   3   O       0.960311       0.926878

     3   O  -   4   C       1.088374       1.045934
     3   O  -   2   C       0.960311       0.926878
     3   O  -   9   H       0.061822       0.034199
     3   O  -  10   H       0.061822       0.034199
     3   O  -  12   C       0.041480       0.022394
     3   O  -  11   C       0.041480       0.022394
     3   O  -   1   C       0.038917       0.022523
     3   O  -   5   H       0.023016       0.016769
     3   O  -  16   H       0.022194       0.017725
     3   O  -  15   H       0.022194       0.017725

     4   C  -   3   O       1.088374       1.045934
     4   C  -   8   H       0.957452       0.963132
     4   C  -  10   H       0.917714       0.870783
     4   C  -   9   H       0.917714       0.870783

     5   H  -   1   C       0.953925       0.961464
     5   H  -   3   O       0.023016       0.016769

     6   H  -   1   C       0.946976       0.948115
     6   H  -  12   C       0.023794       0.024297

     7   H  -   1   C       0.946976       0.948115
     7   H  -  11   C       0.023794       0.024297

     8   H  -   4   C       0.957452       0.963132

     9   H  -   4   C       0.917714       0.870783
     9   H  -   3   O       0.061822       0.034199

    10   H  -   4   C       0.917714       0.870783
    10   H  -   3   O       0.061822       0.034199

    11   C  -   2   C       0.977821       0.967839
    11   C  -  15   H       0.951602       0.969033
    11   C  -  13   H       0.947776       0.950874
    11   C  -  17   H       0.946189       0.953756
    11   C  -   3   O       0.041480       0.022394
    11   C  -   7   H       0.023794       0.024297
    11   C  -  14   H       0.022637       0.023115

    12   C  -   2   C       0.977821       0.967839
    12   C  -  16   H       0.951602       0.969033
    12   C  -  14   H       0.947776       0.950874
    12   C  -  18   H       0.946189       0.953756
    12   C  -   3   O       0.041480       0.022394
    12   C  -   6   H       0.023794       0.024297
    12   C  -  13   H       0.022637       0.023115

    13   H  -  11   C       0.947776       0.950874
    13   H  -  12   C       0.022637       0.023115

    14   H  -  12   C       0.947776       0.950874
    14   H  -  11   C       0.022637       0.023115

    15   H  -  11   C       0.951602       0.969033
    15   H  -   3   O       0.022194       0.017725

    16   H  -  12   C       0.951602       0.969033
    16   H  -   3   O       0.022194       0.017725

    17   H  -  11   C       0.946189       0.953756

    18   H  -  12   C       0.946189       0.953756


 Valency analysis:

   CEN ATOM   TOT.VALENCE
     1   C       3.966216
     2   C       3.949834
     3   O       2.408940
     4   C       3.930798
     5   H       0.998185
     6   H       0.998232
     7   H       0.998232
     8   H       0.997540
     9   H       0.999930
    10   H       0.999930
    11   C       3.959449
    12   C       3.959449
    13   H       0.998198
    14   H       0.998198
    15   H       0.997120
    16   H       0.997120
    17   H       0.997745
    18   H       0.997745

 Total charge composition:

   CEN ATOM         s          p       ELECTRONS ->P.CHARGE
     1   C       2.91298    3.25400      6.16698   -0.16698
     2   C       2.84081    2.92327      5.76407    0.23593
     3   O       3.48535    4.63518      8.12053   -0.12053
     4   C       2.88868    3.14992      6.03860   -0.03860
     5   H       0.95739                 0.95739    0.04261
     6   H       0.95795                 0.95795    0.04205
     7   H       0.95795                 0.95795    0.04205
     8   H       0.95040                 0.95040    0.04960
     9   H       0.99162                 0.99162    0.00838
    10   H       0.99162                 0.99162    0.00838
    11   C       2.90303    3.29200      6.19503   -0.19503
    12   C       2.90303    3.29200      6.19503   -0.19503
    13   H       0.95755                 0.95755    0.04245
    14   H       0.95755                 0.95755    0.04245
    15   H       0.94634                 0.94634    0.05366
    16   H       0.94634                 0.94634    0.05366
    17   H       0.95251                 0.95251    0.04749
    18   H       0.95251                 0.95251    0.04749

 Total charge composition, AO contributions:

   CEN ATOM SHL      SPHERICAL COMPONENTS
     1   C  1s       1.99780
     1   C  2s       0.91517
     1   C  2p       1.10593    1.11322    1.03485

     2   C  1s       1.99837
     2   C  2s       0.84244
     2   C  2p       0.86547    1.02744    1.03036

     3   O  1s       1.99903
     3   O  2s       1.48632
     3   O  2p       1.39189    1.82520    1.41810

     4   C  1s       1.99800
     4   C  2s       0.89068
     4   C  2p       1.11370    1.13266    0.90356

     5   H  1s       0.95739

     6   H  1s       0.95795

     7   H  1s       0.95795

     8   H  1s       0.95040

     9   H  1s       0.99162

    10   H  1s       0.99162

    11   C  1s       1.99783
    11   C  2s       0.90520
    11   C  2p       1.10562    1.07567    1.11071

    12   C  1s       1.99783
    12   C  2s       0.90520
    12   C  2p       1.10562    1.07567    1.11071

    13   H  1s       0.95755

    14   H  1s       0.95755

    15   H  1s       0.94634

    16   H  1s       0.94634

    17   H  1s       0.95251

    18   H  1s       0.95251

 Summary of localized orbital composition:   [THRPRINT= 0.020]

   ORB  GRP  ORB.ENERGY      CENTERS/CHARGES
     1   1   -16.523167      O  3   2.000
     2   1    -8.172644      C  2   2.000
     3   1    -8.169511      C  4   2.000
     4   1    -8.131779      C 11   2.000
     5   1    -8.131779      C 12   2.000
     6   1    -8.125763      C  1   2.000
     7   1    -0.398715      O  3   1.170   C  4   0.820
     8   1    -0.371140      O  3   1.198   C  2   0.766   (other: 0.036)
     9   1    -0.223960      C 11   1.021   C  2   0.945   (other: 0.033)
    10   1    -0.223960      C 12   1.021   C  2   0.945   (other: 0.033)
    11   1    -0.221493      C  1   1.002   C  2   0.961   (other: 0.037)
    12   1    -0.156654      C  4   1.041   H  9   0.952
    13   1    -0.156654      C  4   1.041   H 10   0.952
    14   1    -0.155913      C  4   1.049   H  8   0.937
    15   1    -0.149728      C 11   1.044   H 15   0.932   (other: 0.025)
    16   1    -0.149728      C 12   1.044   H 16   0.932   (other: 0.025)
    17   1    -0.148480      C 12   1.044   H 18   0.934   (other: 0.022)
    18   1    -0.148480      C 11   1.044   H 17   0.934   (other: 0.022)
    19   1    -0.147594      C 11   1.040   H 13   0.940
    20   1    -0.147594      C 12   1.040   H 14   0.940
    21   1    -0.144784      C  1   1.037   H  5   0.942   (other: 0.020)
    22   1    -0.142580      C  1   1.041   H  7   0.939
    23   1    -0.142580      C  1   1.041   H  6   0.939
    24   1    -0.102262      O  3   1.914   (other: 0.086)
    25   1     0.028821      O  3   1.825   C  4   0.045   C  2   0.031   H  9   0.026   H 10   0.026   (other: 0.048)

 Localized orbitals saved to record      2200.2  (orbital set 4)


 **********************************************************************************************************************************
 DATASETS  * FILE   NREC   LENGTH (MB)   RECORD NAMES
              1      20      196.57       500      610      700      900      950      970     1000      129      960     1100   
                                          VAR    BASINP    GEOM    SYMINP    ZMAT    AOBASIS   BASIS     P2S    ABASIS      S 
                                         1400     1410     1200     1210     1080     1600     1650     1300     1700     1800   
                                           T        V       H0       H01     AOSYM     SMH    MOLCAS    ERIS     OPER     GRID   

              2       5        4.08       700     1000      520     1800     2200   
                                         GEOM     BASIS   MCVARS    GRID      UKS  

 PROGRAMS   *        TOTAL      IBBA       UKS       INT
 CPU TIMES  *        54.87      0.06     47.57      7.10
 REAL TIME  *        58.15 SEC
 DISK USED  *       771.70 MB      
 **********************************************************************************************************************************
 Molecular orbitals read from record     2200.2  Type=UKS/LOCAL(IBO)  
 Occupation numbers read from record     2200.2  Type=UKS/LOCAL(IBO)  
 Orbital energies read from record       2200.2  Type=UKS/LOCAL(IBO)  
 Redundancy group numbers read from rec  2200.2  Type=UKS/BETA (state 1.1)

 IBBA/SVP energy=      0.000000000000

        UKS-SCF 
   -235.23868170
 **********************************************************************************************************************************
 Molpro calculation terminated
