
 Primary working directories    : /tmp/sb13343
 Secondary working directories  : /tmp/sb13343
 Wavefunction directory         : /panfs/panasas01/chem/sb13343/wfu/
 Main file repository           : /tmp/sb13343/

 SHA1      : b4a5b34a9e711420743f49e6833241d17c61fb3c
 NAME      : 2099.9.b4a5b34
 ARCHNAME  : linux/x86_64_openmp
 FC        : /cm/shared/languages/GCC-6.1/bin/gfortran
 BLASLIB   : -lblas
 id        : simonbennie

 Nodes     nprocs
 node32-036    1

 Using customized tuning parameters: mindgm=1; mindgv=20; mindgc=4; mindgr=1; noblas=0; minvec=7
 default implementation of scratch files=df  

 memory,500,m
 geomtyp=xyz
 nosym
 noorient
 geometry={
 C          0.00000        0.00000        0.00000
 C          0.00000        0.00000        1.53307
 O          1.40344        0.00000        1.86307
 C          1.76314        0.00000        3.22887
 H         -1.02289        0.00000       -0.39176
 H          0.51995       -0.88625       -0.37815
 H          0.51995        0.88625       -0.37815
 H          2.85677        0.00000        3.25413
 H          1.40708       -0.89217        3.76475
 H          1.40708        0.89217        3.76475
 C         -0.69252       -1.26694        2.06222
 C         -0.69252        1.26694        2.06222
 H         -0.15366       -2.16088        1.72982
 H         -0.15366        2.16088        1.72982
 H         -1.72011       -1.32515        1.68649
 H         -1.72011        1.32515        1.68649
 H         -0.74365       -1.28188        3.15638
 H         -0.74365        1.28188        3.15638
 }
 basis={ default,svp }
 {uks,MM06-2X,direct;wf,50,1,0}
 {ibba,bonds=1}

 Variables initialized (895), CPU time= 0.00 sec
 Commands  initialized (725), CPU time= 0.02 sec, 591 directives.
 Default parameters read. Elapsed time= 0.08 sec

 Checking input...
 Passed
1


                                         ***  PROGRAM SYSTEM MOLPRO  ***
                                       Copyright, TTI GmbH Stuttgart, 2015
                                    Version 2099.9 linked May 26 2017 16:03:21


 **********************************************************************************************************************************
 LABEL *                                                                                 
  64 bit serial version                                                                  DATE: 09-Jun-17          TIME: 01:57:17  
 **********************************************************************************************************************************

 SHA1:             b4a5b34a9e711420743f49e6833241d17c61fb3c
 **********************************************************************************************************************************
 SETTING GEOMTYP        =    XYZ

 Variable memory set to  500000000 words,  buffer space 

 ZSYMEL=NOSYM

 SETTING BASIS          =    SVP


 Recomputing integrals since basis changed


 Using spherical harmonics

 Library entry C      S def2-SVP             selected for orbital group  1
 Library entry C      P def2-SVP             selected for orbital group  1
 Library entry C      D def2-SVP             selected for orbital group  1
 Library entry O      S def2-SVP             selected for orbital group  2
 Library entry O      P def2-SVP             selected for orbital group  2
 Library entry O      D def2-SVP             selected for orbital group  2
 Library entry H      S def2-SVP             selected for orbital group  4
 Library entry H      P def2-SVP             selected for orbital group  4


 PROGRAM * SEWARD (Integral evaluation for generally contracted gaussian basis sets)     Author: Roland Lindh, 1990

 Geometry written to block  1 of record 700


 Point group  C1  



 ATOMIC COORDINATES

 NR  ATOM    CHARGE       X              Y              Z

   1  C       6.00    0.000000000    0.000000000    0.000000000
   2  C       6.00    0.000000000    0.000000000    2.897082430
   3  O       8.00    2.652117232    0.000000000    3.520692051
   4  C       6.00    3.331851719    0.000000000    6.101679992
   5  H       1.00   -1.932981956    0.000000000   -0.740319107
   6  H       1.00    0.982563098   -1.674769778   -0.714599934
   7  H       1.00    0.982563098    1.674769778   -0.714599934
   8  H       1.00    5.398512901    0.000000000    6.149414474
   9  H       1.00    2.658995835   -1.685956957    7.114346427
  10  H       1.00    2.658995835    1.685956957    7.114346427
  11  C       6.00   -1.308673136   -2.394169616    3.897031009
  12  C       6.00   -1.308673136    2.394169616    3.897031009
  13  H       1.00   -0.290375316   -4.083471388    3.268886045
  14  H       1.00   -0.290375316    4.083471388    3.268886045
  15  H       1.00   -3.250536804   -2.504170574    3.187004212
  16  H       1.00   -3.250536804    2.504170574    3.187004212
  17  H       1.00   -1.405294833   -2.422402125    5.964693745
  18  H       1.00   -1.405294833    2.422402125    5.964693745

 Bond lengths in Bohr (Angstrom)

 1-2  2.897082430  1-5  2.069901355  1-6  2.069042560  1-7  2.069042560  2-3  2.724447609
     ( 1.533070000)     ( 1.095344626)     ( 1.094890171)     ( 1.094890171)     ( 1.441715587)

  2-11  2.905954351   2-12  2.905954351   3- 4  2.668995640   4- 8  2.067212379   4- 9  2.078624355
       ( 1.537764818)       ( 1.537764818)       ( 1.412371669)       ( 1.093921681)       ( 1.099960639)

  4-10  2.078624355  11-13  2.070081404  11-15  2.070524757  11-17  2.070111596  12-14  2.070081404
       ( 1.099960639)       ( 1.095439904)       ( 1.095674516)       ( 1.095455880)       ( 1.095439904)

 12-16  2.070524757  12-18  2.070111596
       ( 1.095674516)       ( 1.095455880)

 Bond angles

  1- 2- 3  103.23196371   1- 2-11  110.12706952   1- 2-12  110.12706952   2- 1- 5  110.95650426

  2- 1- 6  110.20481748   2- 1- 7  110.20481748   2- 3- 4  117.98647004   2-11-13  110.26679927

  2-11-15  110.37287188   2-11-17  112.08316935   2-12-14  110.26679927   2-12-16  110.37287188

  2-12-18  112.08316935   3- 2-11  111.07703285   3- 2-12  111.07703285   3- 4- 8  106.07765410

  3- 4- 9  112.87219182   3- 4-10  112.87219182   5- 1- 6  108.65976572   5- 1- 7  108.65976572

  6- 1- 7  108.08288210   8- 4- 9  108.20190897   8- 4-10  108.20190897   9- 4-10  108.40564999

 11- 2-12  110.95103964  13-11-15  108.29648994  13-11-17  108.35544687  14-12-16  108.29648994

 14-12-18  108.35544687  15-11-17  107.33851825  16-12-18  107.33851825

 NUCLEAR CHARGE:                   50
 NUMBER OF PRIMITIVE AOS:         234
 NUMBER OF SYMMETRY AOS:          228
 NUMBER OF CONTRACTIONS:          144   ( 144A   )
 NUMBER OF CORE ORBITALS:           6   (   6A   )
 NUMBER OF VALENCE ORBITALS:       36   (  36A   )


 NUCLEAR REPULSION ENERGY  270.15500869


 Eigenvalues of metric

         1 0.176E-02 0.508E-02 0.513E-02 0.102E-01 0.124E-01 0.215E-01 0.221E-01 0.252E-01


 Contracted 2-electron integrals neglected if value below      1.0D-11
 AO integral compression algorithm  1   Integral accuracy      1.0D-11

     186.384 MB (compressed) written to integral file ( 41.3%)


 NUMBER OF SORTED TWO-ELECTRON INTEGRALS:   54502020.     BUFFER LENGTH:  32768
 NUMBER OF SEGMENTS:   4  SEGMENT LENGTH:   15999503      RECORD LENGTH: 524288

 Memory used in sort:      16.56 MW

 SORT1 READ    56333432. AND WROTE    45703433. INTEGRALS IN    132 RECORDS. CPU TIME:     0.75 SEC, REAL TIME:     1.34 SEC
 SORT2 READ    45703433. AND WROTE    54502020. INTEGRALS IN    711 RECORDS. CPU TIME:     1.07 SEC, REAL TIME:     1.38 SEC

 FILE SIZES:   FILE 1:   217.4 MBYTE,  FILE 4:   553.7 MBYTE,   TOTAL:    771.1 MBYTE

 OPERATOR DM      FOR CENTER  0  COORDINATES:    0.000000    0.000000    0.000000


 **********************************************************************************************************************************
 DATASETS  * FILE   NREC   LENGTH (MB)   RECORD NAMES
              1      19      194.45       500      610      700      900      950      970     1000      129      960     1100   
                                          VAR    BASINP    GEOM    SYMINP    ZMAT    AOBASIS   BASIS     P2S    ABASIS      S 
                                         1400     1410     1200     1210     1080     1600     1650     1300     1700   
                                           T        V       H0       H01     AOSYM     SMH    MOLCAS    ERIS     OPER   

 PROGRAMS   *        TOTAL       INT
 CPU TIMES  *         7.16      7.03
 REAL TIME  *         9.23 SEC
 DISK USED  *       771.70 MB      
 **********************************************************************************************************************************

 Density functional group MM06-2X=M062XX+M062XC
 Functional: M062XX(Automatically generated (new) M062XX)                      Gradient terms: 2
 Functional: M062XC(Automatically generated (new) M062XC)                      Gradient terms: 2
 Use grid at  1800.2


 Exact exchange will be calculated, factor:  0.5400

 Functional: M062XX                    Factor:  0.4600
 Functional: M062XC                    Factor:  1.0000

 Generated new metagrid on record  1800.2 with target accuracy 1.0D-06 and 66012 points in CPU time    1.9
 Computed new grid on record 1800.1 in CPU time    2.2
  228438 words reserved for DFT integration

 PROGRAM * UKS-SCF (Unrestricted Kohn-Sham)     Authors: W. Meyer, H.-J. Werner, P.J. Knowles, 1993

 NUMBER OF ELECTRONS:      25+   25-    SPACE SYMMETRY=1    SPIN SYMMETRY: Singlet 
 CONVERGENCE THRESHOLDS:    1.00E-05 (Density)    1.00E-06 (Energy)
 MAX. NUMBER OF ITERATIONS:       60
 INTERPOLATION TYPE:            DIIS
 INTERPOLATION STEPS:              2 (START)      1 (STEP)
 LEVEL SHIFTS:                 -0.20 (ALPHA)  -0.20 (BETA) 



 Use fine grid record 1800.2 for energy threshold  1.0D-06
 Orbital guess generated from atomic densities. Full valence occupancy:   25

 Molecular orbital dump at record        2200.2

 Initial alpha occupation  25
 Initial beta  occupation  25

 ITERATION    DDIFF          GRAD             ENERGY        2-EL.EN.            DIPOLE MOMENTS         DIIS
    1      0.000D+00      0.000D+00      -263.16486222    757.495895   -0.48908    0.00000    0.45581    0
    2      0.370D-02      0.210D-02      -263.21337984    752.569599   -0.39882    0.00000    0.30917    1
    3      0.119D-02      0.653D-03      -263.21765907    753.001362   -0.32989    0.00000    0.30753    2
    4      0.758D-03      0.192D-03      -263.21852256    752.988523   -0.32056    0.00000    0.31014    3
    5      0.317D-03      0.832D-04      -263.21864800    752.863974   -0.30744    0.00000    0.30616    4
    6      0.214D-03      0.266D-04      -263.21866937    752.856502   -0.30460    0.00000    0.30881    5
    7      0.425D-04      0.573D-05      -263.21867031    752.858796   -0.30426    0.00000    0.30930    6
    8      0.888D-05      0.175D-05      -263.21867038    752.854879   -0.30395   -0.00000    0.30948    7
    9      0.295D-05      0.624D-06      -263.21867039    752.856512   -0.30386    0.00000    0.30952    7

 Final alpha occupancy:  25
 Final beta  occupancy:  25

 !UKS STATE 1.1 Energy               -263.218670386047
 Nuclear energy                       270.15500869
 One-electron energy                 -900.06558103
 Two-electron energy                  376.42825595
 Density functional                    -9.73635400     M062XX=-17.31330175 M062XC= -1.77223519
 Virial quotient                       -0.99021131
 !UKS STATE 1.1 Dipole moment          -0.30386460     0.00000000     0.30952245
 Dipole moment /Debye                  -0.77229619     0.00000000     0.78667608

 Orbital energies for positive spin:

         1.1          2.1          3.1          4.1          5.1          6.1          7.1          8.1          9.1         10.1
    -19.138014   -10.203379   -10.194426   -10.150666   -10.150613   -10.144871    -1.053577    -0.817981    -0.708342    -0.701481

        11.1         12.1         13.1         14.1         15.1         16.1         17.1         18.1         19.1         20.1
     -0.674484    -0.547980    -0.486456    -0.466205    -0.466153    -0.429724    -0.410047    -0.390001    -0.371083    -0.361645

        21.1         22.1         23.1         24.1         25.1         26.1         27.1
     -0.351942    -0.331342    -0.331156    -0.284326    -0.241656     0.126941     0.165880

 Orbital energies for negative spin:

         1.1          2.1          3.1          4.1          5.1          6.1          7.1          8.1          9.1         10.1
    -19.138014   -10.203379   -10.194426   -10.150666   -10.150613   -10.144871    -1.053577    -0.817981    -0.708342    -0.701481

        11.1         12.1         13.1         14.1         15.1         16.1         17.1         18.1         19.1         20.1
     -0.674484    -0.547980    -0.486456    -0.466205    -0.466153    -0.429724    -0.410047    -0.390001    -0.371083    -0.361645

        21.1         22.1         23.1         24.1         25.1         26.1         27.1
     -0.351942    -0.331342    -0.331156    -0.284326    -0.241656     0.126941     0.165880

 HOMO     25.1    -0.241656 =      -6.5758eV
 LUMO     26.1     0.126941 =       3.4542eV
 LUMO-HOMO         0.368597 =      10.0300eV

 EXPECTATION VALUE OF S**2:             0.00000000

 Natural orbitals saved to record    2200.2 (Orbital set 3)

 Orbital spaces for UNO-CAS (Min. occupation: 0.020  Max. occupation: 1.980):

 Closed:       25
 Active:        0


 **********************************************************************************************************************************
 DATASETS  * FILE   NREC   LENGTH (MB)   RECORD NAMES
              1      20      196.57       500      610      700      900      950      970     1000      129      960     1100   
                                          VAR    BASINP    GEOM    SYMINP    ZMAT    AOBASIS   BASIS     P2S    ABASIS      S 
                                         1400     1410     1200     1210     1080     1600     1650     1300     1700     1800   
                                           T        V       H0       H01     AOSYM     SMH    MOLCAS    ERIS     OPER     GRID   

              2       5        3.91       700     1000      520     1800     2200   
                                         GEOM     BASIS   MCVARS    GRID      UKS  

 PROGRAMS   *        TOTAL       UKS       INT
 CPU TIMES  *       140.18    133.02      7.03
 REAL TIME  *       143.24 SEC
 DISK USED  *       771.70 MB      
 **********************************************************************************************************************************


 PROGRAM * Intrinsic Basis Bonding Analysis (IBBA)          Author: G. Knizia

 Molecular orbitals read from record     2200.2  Type=UKS/ALPHA (state 1.1)
 Fock matrix read from record            2200.2  Type=UKS/TOTAL (state 1.1)
 Orbital energies read from record       2200.2  Type=UKS/ALPHA (state 1.1)
 Density matrix read from record         2200.2  Type=UKS/CHARGE (state 1.1)

 Number of core orbitals:           6 (   6 )
 Number of closed-shell orbitals:  19 (  19 )

 Basis set MINAO-AUTO-PP generated.      Number of basis functions:   42 

 Polarized AO type:                A = (O Ot + (1-O)(1-Ot)) P12
 Orthogonalization method:         Symmetric (Loewdin)
 Localization functional:          L = sum[A,i] <i|n_A|i>^4 -> max

 Localization group 1:  25 orbitals, occupancy  2.000
 Iterative localization: IB/PM,    7 iter; Final gradient 0.31E-08

 Bond order analysis:       [THRPRINT= 0.020]

   CEN ATOM   CEN ATOM     WIBERG.BO      RENORM.BO
     1   C  -   2   C       0.994178       0.994993
     1   C  -   5   H       0.967473       0.984288
     1   C  -   7   H       0.963187       0.980066
     1   C  -   6   H       0.963187       0.980066

     2   C  -   1   C       0.994178       0.994993
     2   C  -  12   C       0.989741       0.972551
     2   C  -  11   C       0.989741       0.972551
     2   C  -   3   O       0.934940       0.939662

     3   O  -   4   C       1.001621       1.017105
     3   O  -   2   C       0.934940       0.939662
     3   O  -   9   H       0.034017       0.019568
     3   O  -  10   H       0.034017       0.019568
     3   O  -  12   C       0.026169       0.013663
     3   O  -  11   C       0.026169       0.013663

     4   C  -   3   O       1.001621       1.017105
     4   C  -   8   H       0.961569       0.977681
     4   C  -   9   H       0.952675       0.935439
     4   C  -  10   H       0.952675       0.935439

     5   H  -   1   C       0.967473       0.984288

     6   H  -   1   C       0.963187       0.980066

     7   H  -   1   C       0.963187       0.980066

     8   H  -   4   C       0.961569       0.977681

     9   H  -   4   C       0.952675       0.935439
     9   H  -   3   O       0.034017       0.019568

    10   H  -   4   C       0.952675       0.935439
    10   H  -   3   O       0.034017       0.019568

    11   C  -   2   C       0.989741       0.972551
    11   C  -  17   H       0.964780       0.979827
    11   C  -  15   H       0.963955       0.985998
    11   C  -  13   H       0.963468       0.980216
    11   C  -   3   O       0.026169       0.013663

    12   C  -   2   C       0.989741       0.972551
    12   C  -  18   H       0.964780       0.979827
    12   C  -  16   H       0.963955       0.985998
    12   C  -  14   H       0.963468       0.980216
    12   C  -   3   O       0.026169       0.013663

    13   H  -  11   C       0.963468       0.980216

    14   H  -  12   C       0.963468       0.980216

    15   H  -  11   C       0.963955       0.985998

    16   H  -  12   C       0.963955       0.985998

    17   H  -  11   C       0.964780       0.979827

    18   H  -  12   C       0.964780       0.979827


 Valency analysis:

   CEN ATOM   TOT.VALENCE
     1   C       3.951323
     2   C       3.939229
     3   O       2.128179
     4   C       3.893031
     5   H       0.989406
     6   H       0.987120
     7   H       0.987120
     8   H       0.984305
     9   H       0.992823
    10   H       0.992823
    11   C       3.950015
    12   C       3.950015
    13   H       0.987338
    14   H       0.987338
    15   H       0.987394
    16   H       0.987394
    17   H       0.989125
    18   H       0.989125

 Total charge composition:

   CEN ATOM         s          p       ELECTRONS ->P.CHARGE
     1   C       2.98671    3.34427      6.33099   -0.33099
     2   C       2.90121    2.84713      5.74835    0.25165
     3   O       3.56991    4.79367      8.36358   -0.36358
     4   C       2.97471    3.15853      6.13324   -0.13324
     5   H       0.89707                 0.89707    0.10293
     6   H       0.88651                 0.88651    0.11349
     7   H       0.88651                 0.88651    0.11349
     8   H       0.87472                 0.87472    0.12528
     9   H       0.91528                 0.91528    0.08472
    10   H       0.91528                 0.91528    0.08472
    11   C       2.98635    3.36697      6.35332   -0.35332
    12   C       2.98635    3.36697      6.35332   -0.35332
    13   H       0.88748                 0.88748    0.11252
    14   H       0.88748                 0.88748    0.11252
    15   H       0.88772                 0.88772    0.11228
    16   H       0.88772                 0.88772    0.11228
    17   H       0.89571                 0.89571    0.10429
    18   H       0.89571                 0.89571    0.10429

 Total charge composition, AO contributions:

   CEN ATOM SHL      SPHERICAL COMPONENTS
     1   C  1s       1.99239
     1   C  2s       0.99432
     1   C  2p       1.14381    1.15616    1.04430

     2   C  1s       1.99388
     2   C  2s       0.90733
     2   C  2p       0.81053    1.01680    1.01981

     3   O  1s       1.99756
     3   O  2s       1.57235
     3   O  2p       1.43498    1.90918    1.44951

     4   C  1s       1.99295
     4   C  2s       0.98176
     4   C  2p       1.14775    1.15067    0.86011

     5   H  1s       0.89707

     6   H  1s       0.88651

     7   H  1s       0.88651

     8   H  1s       0.87472

     9   H  1s       0.91528

    10   H  1s       0.91528

    11   C  1s       1.99244
    11   C  2s       0.99391
    11   C  2p       1.13425    1.09442    1.13830

    12   C  1s       1.99244
    12   C  2s       0.99391
    12   C  2p       1.13425    1.09442    1.13830

    13   H  1s       0.88748

    14   H  1s       0.88748

    15   H  1s       0.88772

    16   H  1s       0.88772

    17   H  1s       0.89571

    18   H  1s       0.89571

 Summary of localized orbital composition:   [THRPRINT= 0.020]

   ORB  GRP  ORB.ENERGY      CENTERS/CHARGES
     1   1   -19.002657      O  3   2.000
     2   1   -10.114753      C  2   2.000
     3   1   -10.090274      C  4   2.000
     4   1   -10.041652      C 12   2.000
     5   1   -10.041652      C 11   2.000
     6   1   -10.035222      C  1   2.000
     7   1    -0.778791      O  3   1.231   C  4   0.762
     8   1    -0.749793      O  3   1.258   C  2   0.718   (other: 0.024)
     9   1    -0.576968      C 11   1.013   C  2   0.969
    10   1    -0.576968      C 12   1.013   C  2   0.969
    11   1    -0.574026      C  1   0.994   C  2   0.983   (other: 0.023)
    12   1    -0.533714      O  3   1.959   (other: 0.041)
    13   1    -0.513523      C  4   1.103   H  9   0.895
    14   1    -0.513523      C  4   1.103   H 10   0.895
    15   1    -0.509680      C  4   1.125   H  8   0.867
    16   1    -0.498630      C 12   1.105   H 16   0.879
    17   1    -0.498630      C 11   1.105   H 15   0.879
    18   1    -0.497402      C 11   1.101   H 17   0.887
    19   1    -0.497402      C 12   1.101   H 18   0.887
    20   1    -0.494310      C  1   1.098   H  5   0.889
    21   1    -0.493313      C 12   1.110   H 14   0.879
    22   1    -0.493313      C 11   1.110   H 13   0.879
    23   1    -0.487659      C  1   1.111   H  6   0.878
    24   1    -0.487659      C  1   1.111   H  7   0.878
    25   1    -0.305885      O  3   1.909   (other: 0.091)

 Localized orbitals saved to record      2200.2  (orbital set 4)


 **********************************************************************************************************************************
 DATASETS  * FILE   NREC   LENGTH (MB)   RECORD NAMES
              1      20      196.57       500      610      700      900      950      970     1000      129      960     1100   
                                          VAR    BASINP    GEOM    SYMINP    ZMAT    AOBASIS   BASIS     P2S    ABASIS      S 
                                         1400     1410     1200     1210     1080     1600     1650     1300     1700     1800   
                                           T        V       H0       H01     AOSYM     SMH    MOLCAS    ERIS     OPER     GRID   

              2       5        4.08       700     1000      520     1800     2200   
                                         GEOM     BASIS   MCVARS    GRID      UKS  

 PROGRAMS   *        TOTAL      IBBA       UKS       INT
 CPU TIMES  *       140.24      0.06    133.02      7.03
 REAL TIME  *       143.42 SEC
 DISK USED  *       771.70 MB      
 **********************************************************************************************************************************
 Molecular orbitals read from record     2200.2  Type=UKS/LOCAL(IBO)  
 Occupation numbers read from record     2200.2  Type=UKS/LOCAL(IBO)  
 Orbital energies read from record       2200.2  Type=UKS/LOCAL(IBO)  
 Redundancy group numbers read from rec  2200.2  Type=UKS/BETA (state 1.1)

 IBBA/SVP energy=      0.000000000000

        UKS-SCF 
   -263.21867039
 **********************************************************************************************************************************
 Molpro calculation terminated
