
 Primary working directories    : /tmp/sb13343
 Secondary working directories  : /tmp/sb13343
 Wavefunction directory         : /panfs/panasas01/chem/sb13343/wfu/
 Main file repository           : /tmp/sb13343/

 SHA1      : b4a5b34a9e711420743f49e6833241d17c61fb3c
 NAME      : 2099.9.b4a5b34
 ARCHNAME  : linux/x86_64_openmp
 FC        : /cm/shared/languages/GCC-6.1/bin/gfortran
 BLASLIB   : -lblas
 id        : simonbennie

 Nodes     nprocs
 node32-018    1

 Using customized tuning parameters: mindgm=1; mindgv=20; mindgc=4; mindgr=1; noblas=0; minvec=7
 default implementation of scratch files=df  

 memory,500,m
 geomtyp=xyz
 nosym
 noorient
 geometry={
 H         -1.13405        1.76167        0.00000
 C         -1.32915        0.67205        0.00000
 C         -0.06360       -0.12883        0.00000
 C          0.67426       -0.31636        1.28970
 C          0.67426       -0.31636       -1.28970
 H         -1.94006        0.46750        0.88859
 H         -1.94006        0.46750       -0.88859
 H          1.28359        0.56876        1.55544
 H         -0.01165       -0.48291        2.13019
 H          1.36783       -1.16569        1.24157
 H          1.28359        0.56876       -1.55544
 H         -0.01165       -0.48291       -2.13019
 H          1.36783       -1.16569       -1.24157
 }
 basis={ default,svp }
 {ks,PBE,direct;wf,33,1,1}
 {ibba,bonds=1}

 Variables initialized (895), CPU time= 0.01 sec
 Commands  initialized (725), CPU time= 0.01 sec, 591 directives.
 Default parameters read. Elapsed time= 0.07 sec

 Checking input...
 Passed
1


                                         ***  PROGRAM SYSTEM MOLPRO  ***
                                       Copyright, TTI GmbH Stuttgart, 2015
                                    Version 2099.9 linked May 26 2017 16:03:21


 **********************************************************************************************************************************
 LABEL *                                                                                 
  64 bit serial version                                                                  DATE: 08-Jun-17          TIME: 20:42:01  
 **********************************************************************************************************************************

 SHA1:             b4a5b34a9e711420743f49e6833241d17c61fb3c
 **********************************************************************************************************************************
 SETTING GEOMTYP        =    XYZ

 Variable memory set to  500000000 words,  buffer space 

 ZSYMEL=NOSYM

 SETTING BASIS          =    SVP


 Recomputing integrals since basis changed


 Using spherical harmonics

 Library entry H      S def2-SVP             selected for orbital group  1
 Library entry H      P def2-SVP             selected for orbital group  1
 Library entry C      S def2-SVP             selected for orbital group  2
 Library entry C      P def2-SVP             selected for orbital group  2
 Library entry C      D def2-SVP             selected for orbital group  2


 PROGRAM * SEWARD (Integral evaluation for generally contracted gaussian basis sets)     Author: Roland Lindh, 1990

 Geometry written to block  1 of record 700


 Point group  C1  



 ATOMIC COORDINATES

 NR  ATOM    CHARGE       X              Y              Z

   1  H       1.00   -2.143043912    3.329073822    0.000000000
   2  C       6.00   -2.511729478    1.269990442    0.000000000
   3  C       6.00   -0.120186582   -0.243453417    0.000000000
   4  C       6.00    1.274166737   -0.597833757    2.437179783
   5  C       6.00    1.274166737   -0.597833757   -2.437179783
   6  H       1.00   -3.666182065    0.883446963    1.679191737
   7  H       1.00   -3.666182065    0.883446963   -1.679191737
   8  H       1.00    2.425633556    1.074800631    2.939355603
   9  H       1.00   -0.022015309   -0.912567643    4.025475693
  10  H       1.00    2.584824085   -2.202834846    2.346227264
  11  H       1.00    2.425633556    1.074800631   -2.939355603
  12  H       1.00   -0.022015309   -0.912567643   -4.025475693
  13  H       1.00    2.584824085   -2.202834846   -2.346227264

 Bond lengths in Bohr (Angstrom)

 1-2  2.091830159  2-3  2.830192527  2-6  2.074092940  2-7  2.074092940  3-4  2.830132841
     ( 1.106948849)     ( 1.497673388)     ( 1.097562717)     ( 1.097562717)     ( 1.497641803)

  3- 5  2.830132841   4- 8  2.091832255   4- 9  2.074085151   4-10  2.074156104   5-11  2.091832255
       ( 1.497641803)       ( 1.106949959)       ( 1.097558596)       ( 1.097596142)       ( 1.106949959)

  5-12  2.074085151   5-13  2.074156104
       ( 1.097558596)       ( 1.097596142)

 Bond angles

  1-2-3  112.17549786   1-2-6  106.35284965   1-2-7  106.35284965   2-3-4  118.89987932

  2-3-5  118.89987932   3-2-6  111.75744418   3-2-7  111.75744418   3-4-8  112.19808176

  3- 4- 9  111.75014522   3- 4-10  111.74379558   3- 5-11  112.19808176   3- 5-12  111.75014522

  3- 5-13  111.74379558   4- 3- 5  118.89276928   6- 2- 7  108.11431090   8- 4- 9  106.34995457

  8- 4-10  106.34572146   9- 4-10  108.12296896  11- 5-12  106.34995457  11- 5-13  106.34572146

 12- 5-13  108.12296896

 NUCLEAR CHARGE:                   33
 NUMBER OF PRIMITIVE AOS:         163
 NUMBER OF SYMMETRY AOS:          159
 NUMBER OF CONTRACTIONS:          101   ( 101A   )
 NUMBER OF CORE ORBITALS:           4   (   4A   )
 NUMBER OF VALENCE ORBITALS:       25   (  25A   )


 NUCLEAR REPULSION ENERGY  124.92676597


 Eigenvalues of metric

         1 0.371E-02 0.424E-02 0.424E-02 0.242E-01 0.242E-01 0.268E-01 0.277E-01 0.371E-01


 Contracted 2-electron integrals neglected if value below      1.0D-11
 AO integral compression algorithm  1   Integral accuracy      1.0D-11

     53.477 MB (compressed) written to integral file ( 46.4%)


 NUMBER OF SORTED TWO-ELECTRON INTEGRALS:   13268976.     BUFFER LENGTH:  32768
 NUMBER OF SEGMENTS:   1  SEGMENT LENGTH:   13268976      RECORD LENGTH: 524288

 Memory used in sort:      13.83 MW

 SORT1 READ    14422061. AND WROTE    12225547. INTEGRALS IN     35 RECORDS. CPU TIME:     0.15 SEC, REAL TIME:     0.32 SEC
 SORT2 READ    12225547. AND WROTE    13268976. INTEGRALS IN    204 RECORDS. CPU TIME:     0.32 SEC, REAL TIME:     0.40 SEC

 FILE SIZES:   FILE 1:    84.0 MBYTE,  FILE 4:   146.8 MBYTE,   TOTAL:    230.9 MBYTE

 OPERATOR DM      FOR CENTER  0  COORDINATES:    0.000000    0.000000    0.000000


 **********************************************************************************************************************************
 DATASETS  * FILE   NREC   LENGTH (MB)   RECORD NAMES
              1      19       77.16       500      610      700      900      950      970     1000      129      960     1100   
                                          VAR    BASINP    GEOM    SYMINP    ZMAT    AOBASIS   BASIS     P2S    ABASIS      S 
                                         1400     1410     1200     1210     1080     1600     1650     1300     1700   
                                           T        V       H0       H01     AOSYM     SMH    MOLCAS    ERIS     OPER   

 PROGRAMS   *        TOTAL       INT
 CPU TIMES  *         2.13      1.99
 REAL TIME  *         2.76 SEC
 DISK USED  *       231.35 MB      
 **********************************************************************************************************************************

 Density functional group PBE=PBEX+PBEC
 Functional: PBEX(Automatically generated (new) PBEX)                          Gradient terms: 1
 Functional: PBEC(Automatically generated (new) PBEC)                          Gradient terms: 1
 Use grid at  1800.2

 Functional: PBEX                      Factor:  1.0000
 Functional: PBEC                      Factor:  1.0000

 Generated new metagrid on record  1800.2 with target accuracy 1.0D-06 and 45406 points in CPU time    1.3
 Computed new grid on record 1800.1 in CPU time    1.4
   84355 words reserved for DFT integration

 PROGRAM * RKS-SCF (Restricted open shell Kohn-Sham)     Authors: W. Meyer, H.-J. Werner, P.J. Knowles, 1993

 NUMBER OF ELECTRONS:      17+   16-    SPACE SYMMETRY=1    SPIN SYMMETRY: Doublet 
 CONVERGENCE THRESHOLDS:    1.00E-05 (Density)    1.00E-06 (Energy)
 MAX. NUMBER OF ITERATIONS:       60
 INTERPOLATION TYPE:            DIIS
 INTERPOLATION STEPS:              2 (START)      1 (STEP)
 LEVEL SHIFTS:                 -0.60 (CLOSED) -0.30 (OPEN) 



 Use fine grid record 1800.2 for energy threshold  1.0D-06
 Orbital guess generated from atomic densities. Full valence occupancy:   17

 Molecular orbital dump at record        2100.2

 Initial alpha occupancy:  17
 Initial beta  occupancy:  16
 Wave function symmetry:    1

 ITERATION    DDIFF          GRAD             ENERGY        2-EL.EN.            DIPOLE MOMENTS         DIIS   ORB.
    1      0.000D+00      0.000D+00      -157.18840180    414.117730    0.13740    0.27772    0.00000    0    start
    2      0.000D+00      0.122D-01      -157.41352983    396.192249    0.02589    0.05250    0.00000    1    diag,B
    3      0.142D-01      0.469D-02      -157.44324440    400.218535    0.05136    0.10386    0.00000    2    diag,B
    4      0.413D-02      0.590D-03      -157.44428744    399.882442    0.04307    0.08708    0.00000    3    diag,B
    5      0.143D-02      0.245D-03      -157.44448055    399.887818    0.04447    0.08989    0.00000    4    diag,B
    6      0.619D-03      0.912D-04      -157.44451669    399.844281    0.04293    0.08675    0.00000    5    diag,B
    7      0.350D-03      0.236D-04      -157.44452008    399.841502    0.04332    0.08754    0.00000    6    fixocc
    8      0.120D-03      0.777D-05      -157.44452048    399.841707    0.04333    0.08756    0.00000    7    diag,B
    9      0.447D-04      0.206D-05      -157.44452051    399.841711    0.04342    0.08774    0.00000    8    diag,B
   10      0.952D-05      0.719D-06      -157.44452051    399.841633    0.04341    0.08773    0.00000    0    orth

 Final alpha occupancy:  17
 Final beta  occupancy:  16

 !RKS STATE 1.1 Energy               -157.444520507533
 Nuclear energy                       124.92676597
 One-electron energy                 -457.53668334
 Two-electron energy                  199.92081639
 Density functional                   -24.75541953     PBEX=-23.70030651 PBEC= -1.05511302
 Virial quotient                       -1.01248873
 !RKS STATE 1.1 Dipole moment           0.04341251     0.08772707     0.00000000
 Dipole moment /Debye                   0.11033637     0.22296536     0.00000000

 Orbital energies:

         1.1          2.1          3.1          4.1          5.1          6.1          7.1          8.1          9.1         10.1
     -9.892239    -9.886571    -9.886571    -9.886549    -0.709148    -0.612386    -0.612381    -0.463755    -0.386488    -0.386483

        11.1         12.1         13.1         14.1         15.1         16.1         17.1         18.1         19.1
     -0.381977    -0.334229    -0.334199    -0.317602    -0.297280    -0.297276    -0.133965     0.034415     0.083473

 HOMO     17.1    -0.133965 =      -3.6454eV
 LUMO     18.1     0.034415 =       0.9365eV
 LUMO-HOMO         0.168380 =       4.5819eV


 **********************************************************************************************************************************
 DATASETS  * FILE   NREC   LENGTH (MB)   RECORD NAMES
              1      20       78.61       500      610      700      900      950      970     1000      129      960     1100   
                                          VAR    BASINP    GEOM    SYMINP    ZMAT    AOBASIS   BASIS     P2S    ABASIS      S 
                                         1400     1410     1200     1210     1080     1600     1650     1300     1700     1800   
                                           T        V       H0       H01     AOSYM     SMH    MOLCAS    ERIS     OPER     GRID   

              2       5        3.26       700     1000      520     1800     2100   
                                         GEOM     BASIS   MCVARS    GRID      RKS  

 PROGRAMS   *        TOTAL        KS       INT
 CPU TIMES  *        14.60     12.47      1.99
 REAL TIME  *        15.91 SEC
 DISK USED  *       231.35 MB      
 **********************************************************************************************************************************


 PROGRAM * Intrinsic Basis Bonding Analysis (IBBA)          Author: G. Knizia

 Molecular orbitals read from record     2100.2  Type=RKS/CANONICAL (state 1.1)
 Fock matrix read from record            2100.2  Type=RKS/TOTAL (state 1.1)
 Orbital energies read from record       2100.2  Type=RKS/CANONICAL (state 1.1)
 Density matrix read from record         2100.2  Type=RKS/CHARGE (state 1.1)

 Number of core orbitals:           4 (   4 )
 Number of closed-shell orbitals:  12 (  12 )
 Number of active  orbitals:        1 (   1 )

 Basis set MINAO-AUTO-PP generated.      Number of basis functions:   29 

 Polarized AO type:                A = (O Ot + (1-O)(1-Ot)) P12
 Orthogonalization method:         Symmetric (Loewdin)
 Localization functional:          L = sum[A,i] <i|n_A|i>^4 -> max

 Localization group 1:  16 orbitals, occupancy  2.000
 Iterative localization: IB/PM,    7 iter; Final gradient 0.35E-08

 Bond order analysis:       [THRPRINT= 0.020]

   CEN ATOM   CEN ATOM     WIBERG.BO      RENORM.BO
     1   H  -   2   C       0.914849       0.998142
     1   H  -   3   C       0.038313       0.195107

     2   C  -   3   C       1.084553       1.313729
     2   C  -   6   H       0.951602       0.986289
     2   C  -   7   H       0.951602       0.986289
     2   C  -   1   H       0.914849       0.998142

     3   C  -   2   C       1.084553       1.313729
     3   C  -   5   C       1.084536       1.313675
     3   C  -   4   C       1.084536       1.313675
     3   C  -   1   H       0.038313       0.195107
     3   C  -  11   H       0.038284       0.194960
     3   C  -   8   H       0.038284       0.194960

     4   C  -   3   C       1.084536       1.313675
     4   C  -   9   H       0.951637       0.986280
     4   C  -  10   H       0.951548       0.986306
     4   C  -   8   H       0.914871       0.998137

     5   C  -   3   C       1.084536       1.313675
     5   C  -  12   H       0.951637       0.986280
     5   C  -  13   H       0.951548       0.986306
     5   C  -  11   H       0.914871       0.998137

     6   H  -   2   C       0.951602       0.986289

     7   H  -   2   C       0.951602       0.986289

     8   H  -   4   C       0.914871       0.998137
     8   H  -   3   C       0.038284       0.194960

     9   H  -   4   C       0.951637       0.986280

    10   H  -   4   C       0.951548       0.986306

    11   H  -   5   C       0.914871       0.998137
    11   H  -   3   C       0.038284       0.194960

    12   H  -   5   C       0.951637       0.986280

    13   H  -   5   C       0.951548       0.986306


 Valency analysis:

   CEN ATOM   TOT.VALENCE
     1   H       0.966703
     2   C       3.939234
     3   C       3.416167
     4   C       3.939220
     5   C       3.939220
     6   H       0.978553
     7   H       0.978553
     8   H       0.966698
     9   H       0.978567
    10   H       0.978536
    11   H       0.966698
    12   H       0.978567
    13   H       0.978536
 Localization group 2:   1 orbitals, occupancy  1.000
 Iterative localization: IB/PM,    1 iter; Final gradient 0.00E+00

 Bond order analysis:       [THRPRINT= 0.020]

   CEN ATOM   CEN ATOM     WIBERG.BO      RENORM.BO
     1   H  -   3   C       0.082080       0.500000


     3   C  -   1   H       0.082080       0.500000
     3   C  -  11   H       0.082070       0.500000
     3   C  -   8   H       0.082070       0.500000





     8   H  -   3   C       0.082070       0.500000



    11   H  -   3   C       0.082070       0.500000




 Valency analysis:

   CEN ATOM   TOT.VALENCE
     1   H       0.099207
     2   C       0.003510
     3   C       0.338626
     4   C       0.003498
     5   C       0.003498
     6   H       0.017720
     7   H       0.017720
     8   H       0.099195
     9   H       0.017657
    10   H       0.017809
    11   H       0.099195
    12   H       0.017657
    13   H       0.017809

 Total charge composition:

   CEN ATOM         s          p       ELECTRONS ->P.CHARGE
     1   H       0.86987                 0.86987    0.13013
     2   C       3.01706    3.39494      6.41199   -0.41199
     3   C       2.96501    3.01440      5.97941    0.02059
     4   C       3.01705    3.39499      6.41204   -0.41204
     5   C       3.01705    3.39499      6.41204   -0.41204
     6   H       0.86249                 0.86249    0.13751
     7   H       0.86249                 0.86249    0.13751
     8   H       0.86985                 0.86985    0.13015
     9   H       0.86251                 0.86251    0.13749
    10   H       0.86248                 0.86248    0.13752
    11   H       0.86985                 0.86985    0.13015
    12   H       0.86251                 0.86251    0.13749
    13   H       0.86248                 0.86248    0.13752

 Total charge composition, AO contributions:

   CEN ATOM SHL      SPHERICAL COMPONENTS
     1   H  1s       0.86987

     2   C  1s       1.99108
     2   C  2s       1.02598
     2   C  2p       1.09922    1.12959    1.16612

     3   C  1s       1.99280
     3   C  2s       0.97221
     3   C  2p       1.00355    1.00914    1.00171

     4   C  1s       1.99108
     4   C  2s       1.02597
     4   C  2p       1.14139    1.15489    1.09871

     5   C  1s       1.99108
     5   C  2s       1.02597
     5   C  2p       1.14139    1.15489    1.09871

     6   H  1s       0.86249

     7   H  1s       0.86249

     8   H  1s       0.86985

     9   H  1s       0.86251

    10   H  1s       0.86248

    11   H  1s       0.86985

    12   H  1s       0.86251

    13   H  1s       0.86248

 Active orbital charges:

   CEN ATOM         s          p       ELECTRONS ->SPIN.DEN
     1   H       0.05234                 0.05234    0.05234
     2   C       0.00025    0.00151      0.00176    0.00176
     3   C       0.01532    0.76873      0.78405    0.78405
     4   C       0.00025    0.00150      0.00175    0.00175
     5   C       0.00025    0.00150      0.00175    0.00175
     6   H       0.00894                 0.00894    0.00894
     7   H       0.00894                 0.00894    0.00894
     8   H       0.05234                 0.05234    0.05234
     9   H       0.00891                 0.00891    0.00891
    10   H       0.00899                 0.00899    0.00899
    11   H       0.05234                 0.05234    0.05234
    12   H       0.00891                 0.00891    0.00891
    13   H       0.00899                 0.00899    0.00899

 Active orbital charges, AO contributions:

   CEN ATOM SHL      SPHERICAL COMPONENTS
     1   H  1s       0.05234

     2   C  1s       0.00000
     2   C  2s       0.00025
     2   C  2p       0.00000    0.00151    0.00000

     3   C  1s       0.00001
     3   C  2s       0.01531
     3   C  2p       0.15045    0.61828    0.00000

     4   C  1s       0.00000
     4   C  2s       0.00025
     4   C  2p       0.00055    0.00070    0.00026

     5   C  1s       0.00000
     5   C  2s       0.00025
     5   C  2p       0.00055    0.00070    0.00026

     6   H  1s       0.00894

     7   H  1s       0.00894

     8   H  1s       0.05234

     9   H  1s       0.00891

    10   H  1s       0.00899

    11   H  1s       0.05234

    12   H  1s       0.00891

    13   H  1s       0.00899

 Summary of localized orbital composition:   [THRPRINT= 0.020]

   ORB  GRP  ORB.ENERGY      CENTERS/CHARGES
     1   1    -9.800341      C  3   2.000
     2   1    -9.774280      C  5   2.000
     3   1    -9.774280      C  4   2.000
     4   1    -9.774279      C  2   2.000
     5   1    -0.532102      C  5   1.011   C  3   0.975
     6   1    -0.532102      C  4   1.011   C  3   0.975
     7   1    -0.532082      C  2   1.011   C  3   0.975
     8   1    -0.442858      C  2   1.126   H  1   0.813   C  3   0.058
     9   1    -0.442855      C  4   1.126   H  8   0.813   C  3   0.058
    10   1    -0.442855      C  5   1.126   H 11   0.813   C  3   0.058
    11   1    -0.439529      C  4   1.133   H  9   0.847   (other: 0.021)
    12   1    -0.439529      C  5   1.133   H 12   0.847   (other: 0.021)
    13   1    -0.439524      C  2   1.133   H  7   0.847   (other: 0.021)
    14   1    -0.439524      C  2   1.133   H  6   0.847   (other: 0.021)
    15   1    -0.439506      C  4   1.133   H 10   0.846   (other: 0.021)
    16   1    -0.439506      C  5   1.133   H 13   0.846   (other: 0.021)
    17   2    -0.097550      C  3   0.784   H  1   0.052   H 11   0.052   H  8   0.052   (other: 0.059)

 Localized orbitals saved to record      2100.2  (orbital set 2)


 **********************************************************************************************************************************
 DATASETS  * FILE   NREC   LENGTH (MB)   RECORD NAMES
              1      20       78.61       500      610      700      900      950      970     1000      129      960     1100   
                                          VAR    BASINP    GEOM    SYMINP    ZMAT    AOBASIS   BASIS     P2S    ABASIS      S 
                                         1400     1410     1200     1210     1080     1600     1650     1300     1700     1800   
                                           T        V       H0       H01     AOSYM     SMH    MOLCAS    ERIS     OPER     GRID   

              2       5        3.34       700     1000      520     1800     2100   
                                         GEOM     BASIS   MCVARS    GRID      RKS  

 PROGRAMS   *        TOTAL      IBBA        KS       INT
 CPU TIMES  *        14.64      0.04     12.47      1.99
 REAL TIME  *        16.03 SEC
 DISK USED  *       231.35 MB      
 **********************************************************************************************************************************
 Molecular orbitals read from record     2100.2  Type=RKS/LOCAL(IBO)  
 Occupation numbers read from record     2100.2  Type=RKS/LOCAL(IBO)  
 Orbital energies read from record       2100.2  Type=RKS/LOCAL(IBO)  
 Redundancy group numbers read from rec  2100.2  Type=RKS/LOCAL(IBO)  

 IBBA/SVP energy=      0.000000000000

        KS-SCF  
   -157.44452051
 **********************************************************************************************************************************
 Molpro calculation terminated
