
 Primary working directories    : /tmp/sb13343
 Secondary working directories  : /tmp/sb13343
 Wavefunction directory         : /panfs/panasas01/chem/sb13343/wfu/
 Main file repository           : /tmp/sb13343/

 SHA1      : b4a5b34a9e711420743f49e6833241d17c61fb3c
 NAME      : 2099.9.b4a5b34
 ARCHNAME  : linux/x86_64_openmp
 FC        : /cm/shared/languages/GCC-6.1/bin/gfortran
 BLASLIB   : -lblas
 id        : simonbennie

 Nodes     nprocs
 node32-028    1

 Using customized tuning parameters: mindgm=1; mindgv=20; mindgc=4; mindgr=1; noblas=0; minvec=7
 default implementation of scratch files=df  

 memory,500,m
 geomtyp=xyz
 nosym
 noorient
 geometry={
 H         -1.13405        1.76167        0.00000
 C         -1.32915        0.67205        0.00000
 C         -0.06360       -0.12883        0.00000
 C          0.67426       -0.31636        1.28970
 C          0.67426       -0.31636       -1.28970
 H         -1.94006        0.46750        0.88859
 H         -1.94006        0.46750       -0.88859
 H          1.28359        0.56876        1.55544
 H         -0.01165       -0.48291        2.13019
 H          1.36783       -1.16569        1.24157
 H          1.28359        0.56876       -1.55544
 H         -0.01165       -0.48291       -2.13019
 H          1.36783       -1.16569       -1.24157
 }
 basis={ default,sto-3g }
 {uks,PBE0MOL,direct;wf,33,1,1}
 {ibba,bonds=1}

 Variables initialized (895), CPU time= 0.00 sec
 Commands  initialized (725), CPU time= 0.01 sec, 591 directives.
 Default parameters read. Elapsed time= 0.08 sec

 Checking input...
 Passed
1


                                         ***  PROGRAM SYSTEM MOLPRO  ***
                                       Copyright, TTI GmbH Stuttgart, 2015
                                    Version 2099.9 linked May 26 2017 16:03:21


 **********************************************************************************************************************************
 LABEL *                                                                                 
  64 bit serial version                                                                  DATE: 08-Jun-17          TIME: 20:26:01  
 **********************************************************************************************************************************

 SHA1:             b4a5b34a9e711420743f49e6833241d17c61fb3c
 **********************************************************************************************************************************
 SETTING GEOMTYP        =    XYZ

 Variable memory set to  500000000 words,  buffer space 

 ZSYMEL=NOSYM

 SETTING BASIS          =    STO-3G


 Recomputing integrals since basis changed


 Using spherical harmonics

 Library entry H      S STO-3G               selected for orbital group  1
 Library entry C      S STO-3G               selected for orbital group  2
 Library entry C      P STO-3G               selected for orbital group  2


 PROGRAM * SEWARD (Integral evaluation for generally contracted gaussian basis sets)     Author: Roland Lindh, 1990

 Geometry written to block  1 of record 700


 Point group  C1  



 ATOMIC COORDINATES

 NR  ATOM    CHARGE       X              Y              Z

   1  H       1.00   -2.143043912    3.329073822    0.000000000
   2  C       6.00   -2.511729478    1.269990442    0.000000000
   3  C       6.00   -0.120186582   -0.243453417    0.000000000
   4  C       6.00    1.274166737   -0.597833757    2.437179783
   5  C       6.00    1.274166737   -0.597833757   -2.437179783
   6  H       1.00   -3.666182065    0.883446963    1.679191737
   7  H       1.00   -3.666182065    0.883446963   -1.679191737
   8  H       1.00    2.425633556    1.074800631    2.939355603
   9  H       1.00   -0.022015309   -0.912567643    4.025475693
  10  H       1.00    2.584824085   -2.202834846    2.346227264
  11  H       1.00    2.425633556    1.074800631   -2.939355603
  12  H       1.00   -0.022015309   -0.912567643   -4.025475693
  13  H       1.00    2.584824085   -2.202834846   -2.346227264

 Bond lengths in Bohr (Angstrom)

 1-2  2.091830159  2-3  2.830192527  2-6  2.074092940  2-7  2.074092940  3-4  2.830132841
     ( 1.106948849)     ( 1.497673388)     ( 1.097562717)     ( 1.097562717)     ( 1.497641803)

  3- 5  2.830132841   4- 8  2.091832255   4- 9  2.074085151   4-10  2.074156104   5-11  2.091832255
       ( 1.497641803)       ( 1.106949959)       ( 1.097558596)       ( 1.097596142)       ( 1.106949959)

  5-12  2.074085151   5-13  2.074156104
       ( 1.097558596)       ( 1.097596142)

 Bond angles

  1-2-3  112.17549786   1-2-6  106.35284965   1-2-7  106.35284965   2-3-4  118.89987932

  2-3-5  118.89987932   3-2-6  111.75744418   3-2-7  111.75744418   3-4-8  112.19808176

  3- 4- 9  111.75014522   3- 4-10  111.74379558   3- 5-11  112.19808176   3- 5-12  111.75014522

  3- 5-13  111.74379558   4- 3- 5  118.89276928   6- 2- 7  108.11431090   8- 4- 9  106.34995457

  8- 4-10  106.34572146   9- 4-10  108.12296896  11- 5-12  106.34995457  11- 5-13  106.34572146

 12- 5-13  108.12296896

 NUCLEAR CHARGE:                   33
 NUMBER OF PRIMITIVE AOS:          87
 NUMBER OF SYMMETRY AOS:           87
 NUMBER OF CONTRACTIONS:           29   (  29A   )
 NUMBER OF CORE ORBITALS:           4   (   4A   )
 NUMBER OF VALENCE ORBITALS:       25   (  25A   )


 NUCLEAR REPULSION ENERGY  124.92676597


 Eigenvalues of metric

         1 0.210E+00 0.225E+00 0.225E+00 0.315E+00 0.353E+00 0.353E+00 0.362E+00 0.372E+00


 Contracted 2-electron integrals neglected if value below      1.0D-11
 AO integral compression algorithm  1   Integral accuracy      1.0D-11

     0.786 MB (compressed) written to integral file (100.0%)


 NUMBER OF SORTED TWO-ELECTRON INTEGRALS:      94830.     BUFFER LENGTH:  32768
 NUMBER OF SEGMENTS:   1  SEGMENT LENGTH:      94830      RECORD LENGTH: 524288

 Memory used in sort:       0.65 MW

 SORT1 READ      108770. AND WROTE       91348. INTEGRALS IN      1 RECORDS. CPU TIME:     0.00 SEC, REAL TIME:     0.01 SEC
 SORT2 READ       91348. AND WROTE       94830. INTEGRALS IN      3 RECORDS. CPU TIME:     0.01 SEC, REAL TIME:     0.01 SEC

 FILE SIZES:   FILE 1:    31.0 MBYTE,  FILE 4:     4.2 MBYTE,   TOTAL:     35.2 MBYTE

 OPERATOR DM      FOR CENTER  0  COORDINATES:    0.000000    0.000000    0.000000


 **********************************************************************************************************************************
 DATASETS  * FILE   NREC   LENGTH (MB)   RECORD NAMES
              1      19       30.62       500      610      700      900      950      970     1000      129      960     1100   
                                          VAR    BASINP    GEOM    SYMINP    ZMAT    AOBASIS   BASIS     P2S    ABASIS      S 
                                         1400     1410     1200     1210     1080     1600     1650     1300     1700   
                                           T        V       H0       H01     AOSYM     SMH    MOLCAS    ERIS     OPER   

 PROGRAMS   *        TOTAL       INT
 CPU TIMES  *         0.46      0.31
 REAL TIME  *         0.77 SEC
 DISK USED  *        35.68 MB      
 **********************************************************************************************************************************

 Density functional group PBE0MOL=PBEX+PW91C
 Functional: PBEX(Automatically generated (new) PBEX)                          Gradient terms: 1
 Functional: PW91C(Automatically generated (new) PW91C)                        Gradient terms: 1
 Use grid at  1800.2


 Exact exchange will be calculated, factor:  0.2500

 Functional: PBEX                      Factor:  0.7500
 Functional: PW91C                     Factor:  1.0000

 Generated new metagrid on record  1800.2 with target accuracy 1.0D-06 and 45406 points in CPU time    1.3
 Computed new grid on record 1800.1 in CPU time    1.4
   27459 words reserved for DFT integration

 PROGRAM * UKS-SCF (Unrestricted Kohn-Sham)     Authors: W. Meyer, H.-J. Werner, P.J. Knowles, 1993

 NUMBER OF ELECTRONS:      17+   16-    SPACE SYMMETRY=1    SPIN SYMMETRY: Doublet 
 CONVERGENCE THRESHOLDS:    1.00E-05 (Density)    1.00E-06 (Energy)
 MAX. NUMBER OF ITERATIONS:       60
 INTERPOLATION TYPE:            DIIS
 INTERPOLATION STEPS:              2 (START)      1 (STEP)
 LEVEL SHIFTS:                 -0.20 (ALPHA)  -0.20 (BETA) 



 Use fine grid record 1800.2 for energy threshold  1.0D-06
 Orbital guess generated from atomic densities. Full valence occupancy:   17

 Molecular orbital dump at record        2200.2

 Initial alpha occupation  17
 Initial beta  occupation  16

 ITERATION    DDIFF          GRAD             ENERGY        2-EL.EN.            DIPOLE MOMENTS         DIIS
    1      0.000D+00      0.000D+00      -155.56378729    399.941914    0.19559    0.39554   -0.00000    0
    2      0.516D-01      0.193D-01      -155.78796148    388.629267    0.04500    0.09105   -0.00000    1
    3      0.493D-02      0.269D-02      -155.79223084    389.435232    0.04464    0.09036   -0.00000    2
    4      0.201D-02      0.111D-02      -155.79361745    389.406395    0.03991    0.08079   -0.00000    3
    5      0.851D-03      0.431D-03      -155.79383160    389.403640    0.03776    0.07644   -0.00000    4
    6      0.215D-03      0.834D-04      -155.79384216    389.398745    0.03751    0.07594   -0.00000    5
    7      0.374D-04      0.216D-04      -155.79384263    389.399711    0.03746    0.07584   -0.00000    6
    8      0.676D-05      0.483D-05      -155.79384266    389.399781    0.03747    0.07586   -0.00000    6
    9      0.203D-05      0.101D-05      -155.79384266    389.399602    0.03746    0.07584   -0.00000    6

 Final alpha occupancy:  17
 Final beta  occupancy:  16

 !UKS STATE 1.1 Energy               -155.793842663206
 Nuclear energy                       124.92676597
 One-electron energy                 -456.43742996
 Two-electron energy                  194.69980093
 Density functional                   -18.98297960     PBEX=-23.79326423 PW91C= -1.13803143
 Virial quotient                       -1.01493398
 !UKS STATE 1.1 Dipole moment           0.03746112     0.07584081    -0.00000000
 Dipole moment /Debye                   0.09521042     0.19275549    -0.00000000

 Orbital energies for positive spin:

         1.1          2.1          3.1          4.1          5.1          6.1          7.1          8.1          9.1         10.1
    -10.045170   -10.045166   -10.045155   -10.028955    -0.780778    -0.670225    -0.670218    -0.513386    -0.418222    -0.412507

        11.1         12.1         13.1         14.1         15.1         16.1         17.1         18.1         19.1
     -0.412505    -0.359136    -0.359103    -0.340936    -0.307704    -0.307699    -0.117650     0.404600     0.404609

 Orbital energies for negative spin:

         1.1          2.1          3.1          4.1          5.1          6.1          7.1          8.1          9.1         10.1
    -10.046409   -10.046406   -10.046371   -10.012184    -0.759549    -0.668602    -0.668595    -0.488832    -0.408309    -0.408306

        11.1         12.1         13.1         14.1         15.1         16.1         17.1         18.1         19.1
     -0.395942    -0.354151    -0.354119    -0.340254    -0.301552    -0.301544     0.095621     0.408745     0.408755

 HOMO     17.1    -0.117650 =      -3.2014eV
 LUMO    -17.1     0.095621 =       2.6020eV
 LUMO-HOMO         0.213271 =       5.8034eV

 EXPECTATION VALUE OF S**2:             0.75465707

 Occupation number threshold for canonical orbitals:  1.999000 (occupied),  0.001000 (virtual)

 Number of pseudo-canonical orbitals per symmetry:   15
 Number of active natural orbitals per symmetry:      3

 Natural orbitals saved to record    2200.2 (Orbital set 3)

 Orbital spaces for UNO-CAS (Min. occupation: 0.020  Max. occupation: 1.980):

 Closed:       16
 Active:        1


 **********************************************************************************************************************************
 DATASETS  * FILE   NREC   LENGTH (MB)   RECORD NAMES
              1      20       32.07       500      610      700      900      950      970     1000      129      960     1100   
                                          VAR    BASINP    GEOM    SYMINP    ZMAT    AOBASIS   BASIS     P2S    ABASIS      S 
                                         1400     1410     1200     1210     1080     1600     1650     1300     1700     1800   
                                           T        V       H0       H01     AOSYM     SMH    MOLCAS    ERIS     OPER     GRID   

              2       5        3.00       700     1000      520     1800     2200   
                                         GEOM     BASIS   MCVARS    GRID      UKS  

 PROGRAMS   *        TOTAL       UKS       INT
 CPU TIMES  *         4.42      3.96      0.31
 REAL TIME  *         4.82 SEC
 DISK USED  *        35.68 MB      
 **********************************************************************************************************************************


 PROGRAM * Intrinsic Basis Bonding Analysis (IBBA)          Author: G. Knizia

 Molecular orbitals read from record     2200.2  Type=UKS/ALPHA (state 1.1)
 Fock matrix read from record            2200.2  Type=UKS/TOTAL (state 1.1)
 Orbital energies read from record       2200.2  Type=UKS/ALPHA (state 1.1)
 Density matrix read from record         2200.2  Type=UKS/CHARGE (state 1.1)

 Number of core orbitals:           4 (   4 )
 Number of closed-shell orbitals:  12 (  12 )
 Number of active  orbitals:        1 (   1 )

 Basis set MINAO-AUTO-PP generated.      Number of basis functions:   29 

 Polarized AO type:                A = (O Ot + (1-O)(1-Ot)) P12
 Orthogonalization method:         Symmetric (Loewdin)
 Localization functional:          L = sum[A,i] <i|n_A|i>^4 -> max

 Localization group 1:  16 orbitals, occupancy  2.000
 Iterative localization: IB/PM,    8 iter; Final gradient 0.10E-08

 Bond order analysis:       [THRPRINT= 0.020]

   CEN ATOM   CEN ATOM     WIBERG.BO      RENORM.BO
     1   H  -   2   C       0.887640       0.996412
     1   H  -   3   C       0.051188       0.176475

     2   C  -   3   C       1.121548       1.307854
     2   C  -   7   H       0.951117       0.989795
     2   C  -   6   H       0.951117       0.989795
     2   C  -   1   H       0.887640       0.996412

     3   C  -   2   C       1.121548       1.307854
     3   C  -   5   C       1.121537       1.307826
     3   C  -   4   C       1.121537       1.307826
     3   C  -   1   H       0.051188       0.176475
     3   C  -  11   H       0.051156       0.176361
     3   C  -   8   H       0.051156       0.176361

     4   C  -   3   C       1.121537       1.307826
     4   C  -   9   H       0.951173       0.989788
     4   C  -  10   H       0.951038       0.989805
     4   C  -   8   H       0.887676       0.996407

     5   C  -   3   C       1.121537       1.307826
     5   C  -  12   H       0.951173       0.989788
     5   C  -  13   H       0.951038       0.989805
     5   C  -  11   H       0.887676       0.996407

     6   H  -   2   C       0.951117       0.989795

     7   H  -   2   C       0.951117       0.989795

     8   H  -   4   C       0.887676       0.996407
     8   H  -   3   C       0.051156       0.176361

     9   H  -   4   C       0.951173       0.989788

    10   H  -   4   C       0.951038       0.989805

    11   H  -   5   C       0.887676       0.996407
    11   H  -   3   C       0.051156       0.176361

    12   H  -   5   C       0.951173       0.989788

    13   H  -   5   C       0.951038       0.989805


 Valency analysis:

   CEN ATOM   TOT.VALENCE
     1   H       0.965985
     2   C       3.946675
     3   C       3.578872
     4   C       3.946673
     5   C       3.946673
     6   H       0.979792
     7   H       0.979792
     8   H       0.965990
     9   H       0.979806
    10   H       0.979778
    11   H       0.965990
    12   H       0.979806
    13   H       0.979778
 Localization group 2:   1 orbitals, occupancy  1.000
 Iterative localization: IB/PM,    1 iter; Final gradient 0.00E+00

 Bond order analysis:       [THRPRINT= 0.020]

   CEN ATOM   CEN ATOM     WIBERG.BO      RENORM.BO
     1   H  -   3   C       0.076801       0.500000


     3   C  -   1   H       0.076801       0.500000
     3   C  -  11   H       0.076793       0.500000
     3   C  -   8   H       0.076793       0.500000





     8   H  -   3   C       0.076793       0.500000



    11   H  -   3   C       0.076793       0.500000




 Valency analysis:

   CEN ATOM   TOT.VALENCE
     1   H       0.096835
     2   C       0.022729
     3   C       0.372334
     4   C       0.022704
     5   C       0.022704
     6   H       0.019737
     7   H       0.019737
     8   H       0.096825
     9   H       0.019664
    10   H       0.019836
    11   H       0.096825
    12   H       0.019664
    13   H       0.019836

 Total charge composition:

   CEN ATOM         s          p       ELECTRONS ->P.CHARGE
     1   H       0.86659                 0.86659    0.13341
     2   C       2.98544    3.35576      6.34120   -0.34120
     3   C       3.02317    3.14655      6.16972   -0.16972
     4   C       2.98543    3.35577      6.34120   -0.34120
     5   C       2.98543    3.35577      6.34120   -0.34120
     6   H       0.86781                 0.86781    0.13219
     7   H       0.86781                 0.86781    0.13219
     8   H       0.86660                 0.86660    0.13340
     9   H       0.86782                 0.86782    0.13218
    10   H       0.86781                 0.86781    0.13219
    11   H       0.86660                 0.86660    0.13340
    12   H       0.86782                 0.86782    0.13218
    13   H       0.86781                 0.86781    0.13219

 Total charge composition, AO contributions:

   CEN ATOM SHL      SPHERICAL COMPONENTS
     1   H  1s       0.86659

     2   C  1s       1.99163
     2   C  2s       0.99382
     2   C  2p       1.08185    1.10814    1.16576

     3   C  1s       1.99294
     3   C  2s       1.03022
     3   C  2p       1.03945    1.08102    1.02608

     4   C  1s       1.99163
     4   C  2s       0.99381
     4   C  2p       1.13100    1.14418    1.08059

     5   C  1s       1.99163
     5   C  2s       0.99381
     5   C  2p       1.13100    1.14418    1.08059

     6   H  1s       0.86781

     7   H  1s       0.86781

     8   H  1s       0.86660

     9   H  1s       0.86782

    10   H  1s       0.86781

    11   H  1s       0.86660

    12   H  1s       0.86782

    13   H  1s       0.86781

 Active orbital charges:

   CEN ATOM         s          p       ELECTRONS ->SPIN.DEN
     1   H       0.05102                 0.05102    0.05102
     2   C       0.00018    0.01132      0.01150    0.01150
     3   C       0.01070    0.74195      0.75265    0.75265
     4   C       0.00018    0.01131      0.01148    0.01148
     5   C       0.00018    0.01131      0.01148    0.01148
     6   H       0.00997                 0.00997    0.00997
     7   H       0.00997                 0.00997    0.00997
     8   H       0.05102                 0.05102    0.05102
     9   H       0.00993                 0.00993    0.00993
    10   H       0.01002                 0.01002    0.01002
    11   H       0.05102                 0.05102    0.05102
    12   H       0.00993                 0.00993    0.00993
    13   H       0.01002                 0.01002    0.01002

 Active orbital charges, AO contributions:

   CEN ATOM SHL      SPHERICAL COMPONENTS
     1   H  1s       0.05102

     2   C  1s       0.00000
     2   C  2s       0.00018
     2   C  2p       0.00039    0.01093    0.00000

     3   C  1s       0.00002
     3   C  2s       0.01068
     3   C  2p       0.14520    0.59676    0.00000

     4   C  1s       0.00000
     4   C  2s       0.00018
     4   C  2p       0.00337    0.00733    0.00061

     5   C  1s       0.00000
     5   C  2s       0.00018
     5   C  2p       0.00337    0.00733    0.00061

     6   H  1s       0.00997

     7   H  1s       0.00997

     8   H  1s       0.05102

     9   H  1s       0.00993

    10   H  1s       0.01002

    11   H  1s       0.05102

    12   H  1s       0.00993

    13   H  1s       0.01002

 Summary of localized orbital composition:   [THRPRINT= 0.020]

   ORB  GRP  ORB.ENERGY      CENTERS/CHARGES
     1   1    -9.932424      C  2   2.000
     2   1    -9.932420      C  4   2.000
     3   1    -9.932420      C  5   2.000
     4   1    -9.919554      C  3   2.000
     5   1    -0.555677      C  3   1.014   C  5   0.974
     6   1    -0.555677      C  3   1.014   C  4   0.974
     7   1    -0.555654      C  3   1.014   C  2   0.974
     8   1    -0.476988      C  2   1.098   H  1   0.808   C  3   0.087
     9   1    -0.476984      C  4   1.098   H  8   0.808   C  3   0.087
    10   1    -0.476984      C  5   1.098   H 11   0.808   C  3   0.087
    11   1    -0.472730      C  2   1.125   H  6   0.851   (other: 0.024)
    12   1    -0.472730      C  2   1.125   H  7   0.851   (other: 0.024)
    13   1    -0.472729      C  4   1.125   H  9   0.851   (other: 0.024)
    14   1    -0.472729      C  5   1.125   H 12   0.851   (other: 0.024)
    15   1    -0.472705      C  4   1.125   H 10   0.851   (other: 0.024)
    16   1    -0.472705      C  5   1.125   H 13   0.851   (other: 0.024)
    17   2    -0.014351      C  3   0.753   H  1   0.051   H 11   0.051   H  8   0.051   (other: 0.094)

 Localized orbitals saved to record      2200.2  (orbital set 4)


 **********************************************************************************************************************************
 DATASETS  * FILE   NREC   LENGTH (MB)   RECORD NAMES
              1      20       32.07       500      610      700      900      950      970     1000      129      960     1100   
                                          VAR    BASINP    GEOM    SYMINP    ZMAT    AOBASIS   BASIS     P2S    ABASIS      S 
                                         1400     1410     1200     1210     1080     1600     1650     1300     1700     1800   
                                           T        V       H0       H01     AOSYM     SMH    MOLCAS    ERIS     OPER     GRID   

              2       5        3.01       700     1000      520     1800     2200   
                                         GEOM     BASIS   MCVARS    GRID      UKS  

 PROGRAMS   *        TOTAL      IBBA       UKS       INT
 CPU TIMES  *         4.45      0.03      3.96      0.31
 REAL TIME  *         4.93 SEC
 DISK USED  *        35.68 MB      
 **********************************************************************************************************************************
 Molecular orbitals read from record     2200.2  Type=UKS/LOCAL(IBO)  
 Occupation numbers read from record     2200.2  Type=UKS/LOCAL(IBO)  
 Orbital energies read from record       2200.2  Type=UKS/LOCAL(IBO)  
 Redundancy group numbers read from rec  2200.2  Type=UKS/BETA (state 1.1)

 IBBA/STO-3G energy=      0.000000000000

        UKS-SCF 
   -155.79384266
 **********************************************************************************************************************************
 Molpro calculation terminated
