
 Primary working directories    : /local
 Secondary working directories  : /local
 Wavefunction directory         : /local/
 Main file repository           : /local/

 SHA1      : b4a5b34a9e711420743f49e6833241d17c61fb3c
 NAME      : 2099.9.b4a5b34
 ARCHNAME  : linux/x86_64_openmp
 FC        : /cm/shared/languages/GCC-6.1/bin/gfortran
 BLASLIB   : -lblas
 id        : simonbennie

 Nodes     nprocs
 node34-017    1

 Using customized tuning parameters: mindgm=1; mindgv=20; mindgc=4; mindgr=1; noblas=0; minvec=7
 default implementation of scratch files=df  

 memory,500,m
 geomtyp=xyz
 nosym
 noorient
 geometry={
 C         -1.53233        0.02247        0.00000
 C         -0.00192        0.01421        0.00000
 O          0.37239        1.40356        0.00000
 H          1.34248        1.44036        0.00000
 H         -1.92991       -0.99819        0.00000
 H         -1.90797        0.54382       -0.88653
 H         -1.90797        0.54382        0.88653
 C          0.54303       -0.66466       -1.26580
 C          0.54303       -0.66466        1.26580
 H          0.17836       -0.14752       -2.15943
 H          0.17836       -0.14752        2.15943
 H          0.23752       -1.71600       -1.32280
 H          0.23752       -1.71600        1.32280
 H          1.64084       -0.63767       -1.28032
 H          1.64084       -0.63767        1.28032
 }
 basis={ default,qzvp }
 {ks,B3LYP3,direct;wf,42,1,0}
 {ibba,bonds=1}

 Variables initialized (895), CPU time= 0.00 sec
 Commands  initialized (725), CPU time= 0.01 sec, 591 directives.
 Default parameters read. Elapsed time= 0.15 sec

 Checking input...
 Passed
1


                                         ***  PROGRAM SYSTEM MOLPRO  ***
                                       Copyright, TTI GmbH Stuttgart, 2015
                                    Version 2099.9 linked May 26 2017 16:03:21


 **********************************************************************************************************************************
 LABEL *                                                                                 
  64 bit serial version                                                                  DATE: 12-Jun-17          TIME: 18:53:05  
 **********************************************************************************************************************************

 SHA1:             b4a5b34a9e711420743f49e6833241d17c61fb3c
 **********************************************************************************************************************************
 SETTING GEOMTYP        =    XYZ

 Variable memory set to  500000000 words,  buffer space 

 ZSYMEL=NOSYM

 SETTING BASIS          =    QZVP


 Recomputing integrals since basis changed


 Using spherical harmonics

 Library entry C      S def2-QZVP            selected for orbital group  1
 Library entry C      P def2-QZVP            selected for orbital group  1
 Library entry C      D def2-QZVP            selected for orbital group  1
 Library entry C      F def2-QZVP            selected for orbital group  1
 Library entry C      G def2-QZVP            selected for orbital group  1
 Library entry O      S def2-QZVP            selected for orbital group  2
 Library entry O      P def2-QZVP            selected for orbital group  2
 Library entry O      D def2-QZVP            selected for orbital group  2
 Library entry O      F def2-QZVP            selected for orbital group  2
 Library entry O      G def2-QZVP            selected for orbital group  2
 Library entry H      S def2-QZVP            selected for orbital group  3
 Library entry H      P def2-QZVP            selected for orbital group  3
 Library entry H      D def2-QZVP            selected for orbital group  3
 Library entry H      F def2-QZVP            selected for orbital group  3


 PROGRAM * SEWARD (Integral evaluation for generally contracted gaussian basis sets)     Author: Roland Lindh, 1990

 Geometry written to block  1 of record 700


 Point group  C1  



 ATOMIC COORDINATES

 NR  ATOM    CHARGE       X              Y              Z

   1  C       6.00   -2.895684032    0.042462146    0.000000000
   2  C       6.00   -0.003628274    0.026853008    0.000000000
   3  O       8.00    0.703715112    2.652343999    0.000000000
   4  H       1.00    2.536919528    2.721885921    0.000000000
   5  H       1.00   -3.647001345   -1.886305720    0.000000000
   6  H       1.00   -3.605540754    1.027670861   -1.675298901
   7  H       1.00   -3.605540754    1.027670861    1.675298901
   8  C       6.00    1.026177977   -1.256025366   -2.392015328
   9  C       6.00    1.026177977   -1.256025366    2.392015328
  10  H       1.00    0.337051552   -0.278772398   -4.080731285
  11  H       1.00    0.337051552   -0.278772398    4.080731285
  12  H       1.00    0.448847749   -3.242770030   -2.499729718
  13  H       1.00    0.448847749   -3.242770030    2.499729718
  14  H       1.00    3.100738214   -1.205021658   -2.419454152
  15  H       1.00    3.100738214   -1.205021658    2.419454152

 Bond lengths in Bohr (Angstrom)

 1-2  2.892097881  1-5  2.069933136  1-6  2.069096224  1-7  2.069096224  2-3  2.719106031
     ( 1.530432290)     ( 1.095361444)     ( 1.094918569)     ( 1.094918569)     ( 1.438888946)

  2- 8  2.903104402   2- 9  2.903104402   3- 4  1.834522965   8-10  2.069222119   8-12  2.071730422
       ( 1.536256691)       ( 1.536256691)       ( 0.970787746)       ( 1.094985190)       ( 1.096312526)

  8-14  2.075368508   9-11  2.069222119   9-13  2.071730422   9-15  2.075368508
       ( 1.098237719)       ( 1.094985190)       ( 1.096312526)       ( 1.098237719)

 Bond angles

  1-2-3  104.76902697   1-2-8  110.92255387   1-2-9  110.92255387   2-1-5  110.97328220

  2- 1- 6  110.22090701   2- 1- 7  110.22090701   2- 3- 4  107.25071562   2- 8-10  110.21836376

  2- 8-12  111.57747468   2- 8-14  110.77023896   2- 9-11  110.21836376   2- 9-13  111.57747468

  2- 9-15  110.77023896   3- 2- 8  109.53648747   3- 2- 9  109.53648747   5- 1- 6  108.61190457

  5- 1- 7  108.61190457   6- 1- 7  108.12870271   8- 2- 9  110.96453384  10- 8-12  108.52192632

 10- 8-14  108.08997829  11- 9-13  108.52192632  11- 9-15  108.08997829  12- 8-14  107.54424578

 13- 9-15  107.54424578

 NUCLEAR CHARGE:                   42
 NUMBER OF PRIMITIVE AOS:         840
 NUMBER OF SYMMETRY AOS:          715
 NUMBER OF CONTRACTIONS:          585   ( 585A   )
 NUMBER OF CORE ORBITALS:           5   (   5A   )
 NUMBER OF VALENCE ORBITALS:       30   (  30A   )


 NUCLEAR REPULSION ENERGY  198.77359127


 Eigenvalues of metric

         1 0.447E-04 0.459E-04 0.470E-04 0.743E-04 0.823E-04 0.917E-04 0.943E-04 0.107E-03


 Contracted 2-electron integrals neglected if value below      1.0D-12
 AO integral compression algorithm  1   Integral accuracy      1.0D-12

     40752.906 MB (compressed) written to integral file ( 33.4%)


 NUMBER OF SORTED TWO-ELECTRON INTEGRALS:14689922715.     BUFFER LENGTH:  32768
 NUMBER OF SEGMENTS: 184  SEGMENT LENGTH:   79999773      RECORD LENGTH: 262144

 Memory used in sort:      80.29 MW

 SORT1 READ 15248138275. AND WROTE 10587813328. INTEGRALS IN  60679 RECORDS. CPU TIME:   187.05 SEC, REAL TIME:  3654.31 SEC
 SORT2 READ 10587813328. AND WROTE 14689922715. INTEGRALS IN 155460 RECORDS. CPU TIME:   312.45 SEC, REAL TIME:  5364.32 SEC

 FILE SIZES:   FILE 1: 40795.6 MBYTE,  FILE 4:127253.1 MBYTE,   TOTAL: 168048.8 MBYTE

 OPERATOR DM      FOR CENTER  0  COORDINATES:    0.000000    0.000000    0.000000


 **********************************************************************************************************************************
 DATASETS  * FILE   NREC   LENGTH (MB)   RECORD NAMES
              1      19    37754.71       500      610      700      900      950      970     1000      129      960     1100   
                                          VAR    BASINP    GEOM    SYMINP    ZMAT    AOBASIS   BASIS     P2S    ABASIS      S 
                                         1400     1410     1200     1210     1080     1600     1650     1300     1700   
                                           T        V       H0       H01     AOSYM     SMH    MOLCAS    ERIS     OPER   

 PROGRAMS   *        TOTAL       INT
 CPU TIMES  *      1157.31   1157.18
 REAL TIME  *      9886.03 SEC
 DISK USED  *       168.05 GB      
 **********************************************************************************************************************************

 Density functional group B3LYP3=B88+DIRAC+LYP+VWN3
 Functional: B88(Automatically generated (new) B88)                            Gradient terms: 1
 Functional: DIRAC(Automatically generated (new) DIRAC)                        Gradient terms: 0
 Functional: LYP(Automatically generated (new) LYP)                            Gradient terms: 1
 Functional: VWN3(Automatically generated (new) VWN3)                          Gradient terms: 0
 Use grid at  1800.2


 Exact exchange will be calculated, factor:  0.2000

 Functional: B88                       Factor:  0.7200
 Functional: DIRAC                     Factor:  0.0800
 Functional: LYP                       Factor:  0.8100
 Functional: VWN3                      Factor:  0.1900

 Generated new metagrid on record  1800.2 with target accuracy 1.0D-06 and 58228 points in CPU time    1.7
 Computed new grid on record 1800.1 in CPU time    1.9
  469144 words reserved for DFT integration

 PROGRAM * RKS-SCF (Restricted closed shell Kohn-Sham)     Authors: W. Meyer, H.-J. Werner, P.J. Knowles, 1993

 NUMBER OF ELECTRONS:      21+   21-    SPACE SYMMETRY=1    SPIN SYMMETRY: Singlet 
 CONVERGENCE THRESHOLDS:    1.00E-05 (Density)    1.00E-06 (Energy)
 MAX. NUMBER OF ITERATIONS:       60
 INTERPOLATION TYPE:            DIIS
 INTERPOLATION STEPS:              2 (START)      1 (STEP)
 LEVEL SHIFTS:                  0.00 (CLOSED)  0.00 (OPEN) 



 Use fine grid record 1800.2 for energy threshold  1.0D-06
 Orbital guess generated from atomic densities. Full valence occupancy:   21

 Molecular orbital dump at record        2100.2

 Initial occupancy:  21

 ITERATION    DDIFF          GRAD             ENERGY        2-EL.EN.            DIPOLE MOMENTS         DIIS   ORB.
    1      0.000D+00      0.000D+00      -233.56518501    624.438296    0.69968   -0.83875    0.00000    0    start
    2      0.000D+00      0.446D-02      -233.38506755    587.289668   -0.27841   -0.02008    0.00000    1    diag
    3      0.509D-02      0.604D-02      -233.78905566    609.920067    0.37961   -0.64759    0.00000    2    diag
    4      0.424D-02      0.771D-03      -233.79386877    609.024425    0.33682   -0.48152    0.00000    3    diag
    5      0.255D-03      0.236D-03      -233.79432961    608.880534    0.33447   -0.54249    0.00000    4    diag
    6      0.666D-04      0.666D-04      -233.79437205    609.003835    0.33678   -0.53163    0.00000    5    diag
    7      0.172D-04      0.195D-04      -233.79437551    608.989704    0.33745   -0.53014    0.00000    6    diag
    8      0.382D-05      0.206D-05      -233.79437556    608.995789    0.33726   -0.53164    0.00000    7    diag
    9      0.117D-05      0.590D-06      -233.79437556    608.994821    0.33741   -0.53090    0.00000    0    orth

 Final occupancy:  21

 !RKS STATE 1.1 Energy               -233.794375563225
 Nuclear energy                       198.77359127
 One-electron energy                 -709.49587809
 Two-electron energy                  304.49741042
 SCF exchange energy                  -32.49719671     Factor= 0.2000
 Density functional                   -27.56949916     B88=-32.56970873 DIRAC=-29.34882915 LYP= -1.37442558 VWN3= -3.46377801
 Virial quotient                       -1.00562041
 !RKS STATE 1.1 Dipole moment           0.33741438    -0.53089911     0.00000000
 Dipole moment /Debye                   0.85756564    -1.34932256     0.00000000

 Orbital energies:

         1.1          2.1          3.1          4.1          5.1          6.1          7.1          8.1          9.1         10.1
    -19.123356   -10.235405   -10.166532   -10.166528   -10.161205    -1.020147    -0.790009    -0.694415    -0.693295    -0.571721

        11.1         12.1         13.1         14.1         15.1         16.1         17.1         18.1         19.1         20.1
     -0.492811    -0.455408    -0.452632    -0.416403    -0.401843    -0.383965    -0.370801    -0.359974    -0.352913    -0.324883

        21.1         22.1         23.1
     -0.277807     0.004479     0.040849

 HOMO     21.1    -0.277807 =      -7.5595eV
 LUMO     22.1     0.004479 =       0.1219eV
 LUMO-HOMO         0.282286 =       7.6814eV


 **********************************************************************************************************************************
 DATASETS  * FILE   NREC   LENGTH (MB)   RECORD NAMES
              1      20    37756.57       500      610      700      900      950      970     1000      129      960     1100   
                                          VAR    BASINP    GEOM    SYMINP    ZMAT    AOBASIS   BASIS     P2S    ABASIS      S 
                                         1400     1410     1200     1210     1080     1600     1650     1300     1700     1800   
                                           T        V       H0       H01     AOSYM     SMH    MOLCAS    ERIS     OPER     GRID   

              2       5        9.95       700     1000      520     1800     2100   
                                         GEOM     BASIS   MCVARS    GRID      RKS  

 PROGRAMS   *        TOTAL        KS       INT
 CPU TIMES  *      3634.20   2476.89   1157.18
 REAL TIME  *     16445.46 SEC
 DISK USED  *       168.05 GB      
 **********************************************************************************************************************************


 PROGRAM * Intrinsic Basis Bonding Analysis (IBBA)          Author: G. Knizia

 Molecular orbitals read from record     2100.2  Type=RKS/CANONICAL (state 1.1)
 Fock matrix read from record            2100.2  Type=RKS/TOTAL (state 1.1)
 Orbital energies read from record       2100.2  Type=RKS/CANONICAL (state 1.1)
 Density matrix read from record         2100.2  Type=RKS/CHARGE (state 1.1)

 Number of core orbitals:           5 (   5 )
 Number of closed-shell orbitals:  16 (  16 )

 Basis set MINAO-AUTO-PP generated.      Number of basis functions:   35 

 Polarized AO type:                A = (O Ot + (1-O)(1-Ot)) P12
 Orthogonalization method:         Symmetric (Loewdin)
 Localization functional:          L = sum[A,i] <i|n_A|i>^4 -> max

 Localization group 1:  21 orbitals, occupancy  2.000
 Iterative localization: IB/PM,    7 iter; Final gradient 0.28E-08

 Bond order analysis:       [THRPRINT= 0.020]

   CEN ATOM   CEN ATOM     WIBERG.BO      RENORM.BO
     1   C  -   2   C       0.996357       0.994011
     1   C  -   5   H       0.963785       0.987183
     1   C  -   6   H       0.959076       0.981734
     1   C  -   7   H       0.959076       0.981734

     2   C  -   1   C       0.996357       0.994011
     2   C  -   9   C       0.995232       0.976569
     2   C  -   8   C       0.995232       0.976569
     2   C  -   3   O       0.931172       0.950394

     3   O  -   2   C       0.931172       0.950394
     3   O  -   4   H       0.861631       0.976219
     3   O  -   9   C       0.027268       0.013945
     3   O  -   8   C       0.027268       0.013945

     4   H  -   3   O       0.861631       0.976219

     5   H  -   1   C       0.963785       0.987183

     6   H  -   1   C       0.959076       0.981734

     7   H  -   1   C       0.959076       0.981734

     8   C  -   2   C       0.995232       0.976569
     8   C  -  14   H       0.963227       0.982438
     8   C  -  12   H       0.959617       0.981662
     8   C  -  10   H       0.959556       0.981577
     8   C  -   3   O       0.027268       0.013945

     9   C  -   2   C       0.995232       0.976569
     9   C  -  15   H       0.963227       0.982438
     9   C  -  13   H       0.959617       0.981662
     9   C  -  11   H       0.959556       0.981577
     9   C  -   3   O       0.027268       0.013945

    10   H  -   8   C       0.959556       0.981577

    11   H  -   9   C       0.959556       0.981577

    12   H  -   8   C       0.959617       0.981662

    13   H  -   9   C       0.959617       0.981662

    14   H  -   8   C       0.963227       0.982438

    15   H  -   9   C       0.963227       0.982438


 Valency analysis:

   CEN ATOM   TOT.VALENCE
     1   C       3.937485
     2   C       3.928091
     3   O       1.913495
     4   H       0.881210
     5   H       0.982234
     6   H       0.979571
     7   H       0.979571
     8   C       3.940066
     9   C       3.940066
    10   H       0.979572
    11   H       0.979572
    12   H       0.981416
    13   H       0.981416
    14   H       0.983671
    15   H       0.983671

 Total charge composition:

   CEN ATOM         s          p       ELECTRONS ->P.CHARGE
     1   C       3.04172    3.36977      6.41150   -0.41150
     2   C       2.93856    2.80031      5.73887    0.26113
     3   O       3.64835    4.92976      8.57811   -0.57811
     4   H       0.65534                 0.65534    0.34466
     5   H       0.86671                 0.86671    0.13329
     6   H       0.85707                 0.85707    0.14293
     7   H       0.85707                 0.85707    0.14293
     8   C       3.04810    3.37660      6.42470   -0.42470
     9   C       3.04810    3.37660      6.42470   -0.42470
    10   H       0.85708                 0.85708    0.14292
    11   H       0.85708                 0.85708    0.14292
    12   H       0.86368                 0.86368    0.13632
    13   H       0.86368                 0.86368    0.13632
    14   H       0.87221                 0.87221    0.12779
    15   H       0.87221                 0.87221    0.12779

 Total charge composition, AO contributions:

   CEN ATOM SHL      SPHERICAL COMPONENTS
     1   C  1s       1.99120
     1   C  2s       1.05053
     1   C  2p       1.03755    1.15984    1.17238

     2   C  1s       1.99282
     2   C  2s       0.94574
     2   C  2p       1.00715    0.78316    1.01000

     3   O  1s       1.99715
     3   O  2s       1.65120
     3   O  2p       1.47600    1.49680    1.95696

     4   H  1s       0.65534

     5   H  1s       0.86671

     6   H  1s       0.85707

     7   H  1s       0.85707

     8   C  1s       1.99130
     8   C  2s       1.05681
     8   C  2p       1.14206    1.14184    1.09270

     9   C  1s       1.99130
     9   C  2s       1.05681
     9   C  2p       1.14206    1.14184    1.09270

    10   H  1s       0.85708

    11   H  1s       0.85708

    12   H  1s       0.86368

    13   H  1s       0.86368

    14   H  1s       0.87221

    15   H  1s       0.87221

 Summary of localized orbital composition:   [THRPRINT= 0.020]

   ORB  GRP  ORB.ENERGY      CENTERS/CHARGES
     1   1   -18.963103      O  3   2.000
     2   1   -10.143382      C  2   2.000
     3   1   -10.051384      C  8   2.000
     4   1   -10.051384      C  9   2.000
     5   1   -10.045268      C  1   2.000
     6   1    -0.765560      O  3   1.347   H  4   0.644
     7   1    -0.723176      O  3   1.289   C  2   0.693
     8   1    -0.580262      O  3   1.982
     9   1    -0.577360      C  9   1.007   C  2   0.978
    10   1    -0.577360      C  8   1.007   C  2   0.978
    11   1    -0.576578      C  1   0.990   C  2   0.987   (other: 0.023)
    12   1    -0.509818      C  9   1.132   H 13   0.854
    13   1    -0.509818      C  8   1.132   H 12   0.854
    14   1    -0.507964      C  9   1.123   H 15   0.865
    15   1    -0.507964      C  8   1.123   H 14   0.865
    16   1    -0.505445      C  1   1.127   H  5   0.860
    17   1    -0.503848      C  8   1.141   H 10   0.849
    18   1    -0.503848      C  9   1.141   H 11   0.849
    19   1    -0.499089      C  1   1.140   H  7   0.849
    20   1    -0.499089      C  1   1.140   H  6   0.849
    21   1    -0.310351      O  3   1.957   (other: 0.043)

 Localized orbitals saved to record      2100.2  (orbital set 2)


 **********************************************************************************************************************************
 DATASETS  * FILE   NREC   LENGTH (MB)   RECORD NAMES
              1      20    37756.57       500      610      700      900      950      970     1000      129      960     1100   
                                          VAR    BASINP    GEOM    SYMINP    ZMAT    AOBASIS   BASIS     P2S    ABASIS      S 
                                         1400     1410     1200     1210     1080     1600     1650     1300     1700     1800   
                                           T        V       H0       H01     AOSYM     SMH    MOLCAS    ERIS     OPER     GRID   

              2       5       12.70       700     1000      520     1800     2100   
                                         GEOM     BASIS   MCVARS    GRID      RKS  

 PROGRAMS   *        TOTAL      IBBA        KS       INT
 CPU TIMES  *      3634.67      0.46   2476.89   1157.18
 REAL TIME  *     16446.34 SEC
 DISK USED  *       168.05 GB      
 **********************************************************************************************************************************
 Molecular orbitals read from record     2100.2  Type=RKS/LOCAL(IBO)  
 Occupation numbers read from record     2100.2  Type=RKS/LOCAL(IBO)  
 Orbital energies read from record       2100.2  Type=RKS/LOCAL(IBO)  
 Redundancy group numbers read from rec  2100.2  Type=RKS/LOCAL(IBO)  

 IBBA/QZVP energy=      0.000000000000

        KS-SCF  
   -233.79437556
 **********************************************************************************************************************************
 Molpro calculation terminated
