
 Primary working directories    : /local
 Secondary working directories  : /local
 Wavefunction directory         : /local/
 Main file repository           : /local/

 SHA1      : b4a5b34a9e711420743f49e6833241d17c61fb3c
 NAME      : 2099.9.b4a5b34
 ARCHNAME  : linux/x86_64_openmp
 FC        : /cm/shared/languages/GCC-6.1/bin/gfortran
 BLASLIB   : -lblas
 id        : simonbennie

 Nodes     nprocs
 node35-045    1

 Using customized tuning parameters: mindgm=1; mindgv=20; mindgc=4; mindgr=1; noblas=0; minvec=7
 default implementation of scratch files=df  

 memory,500,m
 geomtyp=xyz
 nosym
 noorient
 geometry={
 C         -1.53233        0.02247        0.00000
 C         -0.00192        0.01421        0.00000
 O          0.37239        1.40356        0.00000
 H          1.34248        1.44036        0.00000
 H         -1.92991       -0.99819        0.00000
 H         -1.90797        0.54382       -0.88653
 H         -1.90797        0.54382        0.88653
 C          0.54303       -0.66466       -1.26580
 C          0.54303       -0.66466        1.26580
 H          0.17836       -0.14752       -2.15943
 H          0.17836       -0.14752        2.15943
 H          0.23752       -1.71600       -1.32280
 H          0.23752       -1.71600        1.32280
 H          1.64084       -0.63767       -1.28032
 H          1.64084       -0.63767        1.28032
 }
 basis={ default,qzvp }
 {uks,BECKE,direct;wf,42,1,0}
 {ibba,bonds=1}

 Variables initialized (895), CPU time= 0.01 sec
 Commands  initialized (725), CPU time= 0.01 sec, 591 directives.
 Default parameters read. Elapsed time= 0.09 sec

 Checking input...
 Passed
1


                                         ***  PROGRAM SYSTEM MOLPRO  ***
                                       Copyright, TTI GmbH Stuttgart, 2015
                                    Version 2099.9 linked May 26 2017 16:03:21


 **********************************************************************************************************************************
 LABEL *                                                                                 
  64 bit serial version                                                                  DATE: 12-Jun-17          TIME: 19:05:23  
 **********************************************************************************************************************************

 SHA1:             b4a5b34a9e711420743f49e6833241d17c61fb3c
 **********************************************************************************************************************************
 SETTING GEOMTYP        =    XYZ

 Variable memory set to  500000000 words,  buffer space 

 ZSYMEL=NOSYM

 SETTING BASIS          =    QZVP


 Recomputing integrals since basis changed


 Using spherical harmonics

 Library entry C      S def2-QZVP            selected for orbital group  1
 Library entry C      P def2-QZVP            selected for orbital group  1
 Library entry C      D def2-QZVP            selected for orbital group  1
 Library entry C      F def2-QZVP            selected for orbital group  1
 Library entry C      G def2-QZVP            selected for orbital group  1
 Library entry O      S def2-QZVP            selected for orbital group  2
 Library entry O      P def2-QZVP            selected for orbital group  2
 Library entry O      D def2-QZVP            selected for orbital group  2
 Library entry O      F def2-QZVP            selected for orbital group  2
 Library entry O      G def2-QZVP            selected for orbital group  2
 Library entry H      S def2-QZVP            selected for orbital group  3
 Library entry H      P def2-QZVP            selected for orbital group  3
 Library entry H      D def2-QZVP            selected for orbital group  3
 Library entry H      F def2-QZVP            selected for orbital group  3


 PROGRAM * SEWARD (Integral evaluation for generally contracted gaussian basis sets)     Author: Roland Lindh, 1990

 Geometry written to block  1 of record 700


 Point group  C1  



 ATOMIC COORDINATES

 NR  ATOM    CHARGE       X              Y              Z

   1  C       6.00   -2.895684032    0.042462146    0.000000000
   2  C       6.00   -0.003628274    0.026853008    0.000000000
   3  O       8.00    0.703715112    2.652343999    0.000000000
   4  H       1.00    2.536919528    2.721885921    0.000000000
   5  H       1.00   -3.647001345   -1.886305720    0.000000000
   6  H       1.00   -3.605540754    1.027670861   -1.675298901
   7  H       1.00   -3.605540754    1.027670861    1.675298901
   8  C       6.00    1.026177977   -1.256025366   -2.392015328
   9  C       6.00    1.026177977   -1.256025366    2.392015328
  10  H       1.00    0.337051552   -0.278772398   -4.080731285
  11  H       1.00    0.337051552   -0.278772398    4.080731285
  12  H       1.00    0.448847749   -3.242770030   -2.499729718
  13  H       1.00    0.448847749   -3.242770030    2.499729718
  14  H       1.00    3.100738214   -1.205021658   -2.419454152
  15  H       1.00    3.100738214   -1.205021658    2.419454152

 Bond lengths in Bohr (Angstrom)

 1-2  2.892097881  1-5  2.069933136  1-6  2.069096224  1-7  2.069096224  2-3  2.719106031
     ( 1.530432290)     ( 1.095361444)     ( 1.094918569)     ( 1.094918569)     ( 1.438888946)

  2- 8  2.903104402   2- 9  2.903104402   3- 4  1.834522965   8-10  2.069222119   8-12  2.071730422
       ( 1.536256691)       ( 1.536256691)       ( 0.970787746)       ( 1.094985190)       ( 1.096312526)

  8-14  2.075368508   9-11  2.069222119   9-13  2.071730422   9-15  2.075368508
       ( 1.098237719)       ( 1.094985190)       ( 1.096312526)       ( 1.098237719)

 Bond angles

  1-2-3  104.76902697   1-2-8  110.92255387   1-2-9  110.92255387   2-1-5  110.97328220

  2- 1- 6  110.22090701   2- 1- 7  110.22090701   2- 3- 4  107.25071562   2- 8-10  110.21836376

  2- 8-12  111.57747468   2- 8-14  110.77023896   2- 9-11  110.21836376   2- 9-13  111.57747468

  2- 9-15  110.77023896   3- 2- 8  109.53648747   3- 2- 9  109.53648747   5- 1- 6  108.61190457

  5- 1- 7  108.61190457   6- 1- 7  108.12870271   8- 2- 9  110.96453384  10- 8-12  108.52192632

 10- 8-14  108.08997829  11- 9-13  108.52192632  11- 9-15  108.08997829  12- 8-14  107.54424578

 13- 9-15  107.54424578

 NUCLEAR CHARGE:                   42
 NUMBER OF PRIMITIVE AOS:         840
 NUMBER OF SYMMETRY AOS:          715
 NUMBER OF CONTRACTIONS:          585   ( 585A   )
 NUMBER OF CORE ORBITALS:           5   (   5A   )
 NUMBER OF VALENCE ORBITALS:       30   (  30A   )


 NUCLEAR REPULSION ENERGY  198.77359127


 Eigenvalues of metric

         1 0.447E-04 0.459E-04 0.470E-04 0.743E-04 0.823E-04 0.917E-04 0.943E-04 0.107E-03


 Contracted 2-electron integrals neglected if value below      1.0D-12
 AO integral compression algorithm  1   Integral accuracy      1.0D-12

     40752.906 MB (compressed) written to integral file ( 33.4%)


 NUMBER OF SORTED TWO-ELECTRON INTEGRALS:14689922715.     BUFFER LENGTH:  32768
 NUMBER OF SEGMENTS: 184  SEGMENT LENGTH:   79999773      RECORD LENGTH: 262144

 Memory used in sort:      80.29 MW

 SORT1 READ 15248138275. AND WROTE 10587813328. INTEGRALS IN  60679 RECORDS. CPU TIME:   192.81 SEC, REAL TIME:  1959.60 SEC
 SORT2 READ 10587813328. AND WROTE 14689922715. INTEGRALS IN 155460 RECORDS. CPU TIME:   345.56 SEC, REAL TIME:  2339.48 SEC

 FILE SIZES:   FILE 1: 40795.6 MBYTE,  FILE 4:127253.1 MBYTE,   TOTAL: 168048.8 MBYTE

 OPERATOR DM      FOR CENTER  0  COORDINATES:    0.000000    0.000000    0.000000


 **********************************************************************************************************************************
 DATASETS  * FILE   NREC   LENGTH (MB)   RECORD NAMES
              1      19    37754.71       500      610      700      900      950      970     1000      129      960     1100   
                                          VAR    BASINP    GEOM    SYMINP    ZMAT    AOBASIS   BASIS     P2S    ABASIS      S 
                                         1400     1410     1200     1210     1080     1600     1650     1300     1700   
                                           T        V       H0       H01     AOSYM     SMH    MOLCAS    ERIS     OPER   

 PROGRAMS   *        TOTAL       INT
 CPU TIMES  *      1204.74   1204.60
 REAL TIME  *      5037.37 SEC
 DISK USED  *       168.05 GB      
 **********************************************************************************************************************************

 Density functional group BECKE=B88
 Functional: B88(Automatically generated (new) B88)                            Gradient terms: 1
 Use grid at  1800.2

 Functional: B88                       Factor:  1.0000

 Generated new metagrid on record  1800.2 with target accuracy 1.0D-06 and 58228 points in CPU time    1.7
 Computed new grid on record 1800.1 in CPU time    1.9
  469144 words reserved for DFT integration

 PROGRAM * UKS-SCF (Unrestricted Kohn-Sham)     Authors: W. Meyer, H.-J. Werner, P.J. Knowles, 1993

 NUMBER OF ELECTRONS:      21+   21-    SPACE SYMMETRY=1    SPIN SYMMETRY: Singlet 
 CONVERGENCE THRESHOLDS:    1.00E-05 (Density)    1.00E-06 (Energy)
 MAX. NUMBER OF ITERATIONS:       60
 INTERPOLATION TYPE:            DIIS
 INTERPOLATION STEPS:              2 (START)      1 (STEP)
 LEVEL SHIFTS:                 -0.20 (ALPHA)  -0.20 (BETA) 



 Use fine grid record 1800.2 for energy threshold  1.0D-06
 Orbital guess generated from atomic densities. Full valence occupancy:   21

 Molecular orbital dump at record        2200.2

 Initial alpha occupation  21
 Initial beta  occupation  21

 ITERATION    DDIFF          GRAD             ENERGY        2-EL.EN.            DIPOLE MOMENTS         DIIS
    1      0.000D+00      0.000D+00      -231.98914713    639.538002    0.69217   -0.76278    0.00000    0
    2      0.165D-02      0.135D-02      -232.21631834    612.975092    0.16120   -0.42548    0.00000    1
    3      0.500D-03      0.826D-03      -232.29632072    621.386789    0.34860   -0.55892    0.00000    2
    4      0.201D-03      0.117D-03      -232.29807464    621.134606    0.32958   -0.49409    0.00000    3
    5      0.218D-03      0.490D-04      -232.29861523    621.036969    0.32696   -0.50036    0.00000    4
    6      0.280D-03      0.144D-04      -232.29873818    620.983167    0.32427   -0.49005    0.00000    5
    7      0.850D-04      0.496D-05      -232.29874600    620.939293    0.32190   -0.48915    0.00000    6
    8      0.348D-04      0.325D-05      -232.29874830    620.956324    0.32190   -0.48949    0.00000    7
    9      0.136D-04      0.408D-06      -232.29874842    620.953879    0.32187   -0.48894    0.00000    7
   10      0.359D-05      0.132D-06      -232.29874843    620.954421    0.32171   -0.48916    0.00000    7
   11      0.735D-06      0.391D-07      -232.29874843    620.954380    0.32175   -0.48909    0.00000    7

 Final alpha occupancy:  21
 Final beta  occupancy:  21

 !UKS STATE 1.1 Energy               -232.298748432943
 Nuclear energy                       198.77359127
 One-electron energy                 -709.00009289
 Two-electron energy                  310.47719014
 Density functional                   -32.54943695     B88=-32.54943695
 Virial quotient                       -0.99831042
 !UKS STATE 1.1 Dipole moment           0.32174567    -0.48908991     0.00000000
 Dipole moment /Debye                   0.81774237    -1.24306113     0.00000000

 Orbital energies for positive spin:

         1.1          2.1          3.1          4.1          5.1          6.1          7.1          8.1          9.1         10.1
    -18.735243    -9.932444    -9.868236    -9.868236    -9.863544    -0.892351    -0.677947    -0.589224    -0.588449    -0.477770

        11.1         12.1         13.1         14.1         15.1         16.1         17.1         18.1         19.1         20.1
     -0.404633    -0.369492    -0.366963    -0.333495    -0.320623    -0.305087    -0.292318    -0.279644    -0.273898    -0.246038

        21.1         22.1         23.1
     -0.193212     0.011117     0.045646

 Orbital energies for negative spin:

         1.1          2.1          3.1          4.1          5.1          6.1          7.1          8.1          9.1         10.1
    -18.735242    -9.932444    -9.868235    -9.868235    -9.863544    -0.892349    -0.677946    -0.589223    -0.588448    -0.477770

        11.1         12.1         13.1         14.1         15.1         16.1         17.1         18.1         19.1         20.1
     -0.404633    -0.369492    -0.366963    -0.333495    -0.320623    -0.305087    -0.292318    -0.279644    -0.273898    -0.246037

        21.1         22.1         23.1
     -0.193211     0.011116     0.045645

 HOMO    -21.1    -0.193211 =      -5.2575eV
 LUMO    -22.1     0.011116 =       0.3025eV
 LUMO-HOMO         0.204327 =       5.5600eV

 EXPECTATION VALUE OF S**2:             0.00000000

 Occupation number threshold for canonical orbitals:  1.999000 (occupied),  0.001000 (virtual)

 Number of pseudo-canonical orbitals per symmetry:   21
 Number of active natural orbitals per symmetry:      0

 Natural orbitals saved to record    2200.2 (Orbital set 3)

 Orbital spaces for UNO-CAS (Min. occupation: 0.020  Max. occupation: 1.980):

 Closed:       21
 Active:        0


 **********************************************************************************************************************************
 DATASETS  * FILE   NREC   LENGTH (MB)   RECORD NAMES
              1      20    37756.57       500      610      700      900      950      970     1000      129      960     1100   
                                          VAR    BASINP    GEOM    SYMINP    ZMAT    AOBASIS   BASIS     P2S    ABASIS      S 
                                         1400     1410     1200     1210     1080     1600     1650     1300     1700     1800   
                                           T        V       H0       H01     AOSYM     SMH    MOLCAS    ERIS     OPER     GRID   

              2       5       16.83       700     1000      520     1800     2200   
                                         GEOM     BASIS   MCVARS    GRID      UKS  

 PROGRAMS   *        TOTAL       UKS       INT
 CPU TIMES  *      2605.80   1401.06   1204.60
 REAL TIME  *      6780.71 SEC
 DISK USED  *       168.05 GB      
 **********************************************************************************************************************************


 PROGRAM * Intrinsic Basis Bonding Analysis (IBBA)          Author: G. Knizia

 Molecular orbitals read from record     2200.2  Type=UKS/ALPHA (state 1.1)
 Fock matrix read from record            2200.2  Type=UKS/TOTAL (state 1.1)
 Orbital energies read from record       2200.2  Type=UKS/ALPHA (state 1.1)
 Density matrix read from record         2200.2  Type=UKS/CHARGE (state 1.1)

 Number of core orbitals:           5 (   5 )
 Number of closed-shell orbitals:  16 (  16 )

 Basis set MINAO-AUTO-PP generated.      Number of basis functions:   35 

 Polarized AO type:                A = (O Ot + (1-O)(1-Ot)) P12
 Orthogonalization method:         Symmetric (Loewdin)
 Localization functional:          L = sum[A,i] <i|n_A|i>^4 -> max

 Localization group 1:  21 orbitals, occupancy  2.000
 Iterative localization: IB/PM,    7 iter; Final gradient 0.16E-08

 Bond order analysis:       [THRPRINT= 0.020]

   CEN ATOM   CEN ATOM     WIBERG.BO      RENORM.BO
     1   C  -   2   C       0.995919       0.994717
     1   C  -   5   H       0.964761       0.986033
     1   C  -   6   H       0.960231       0.979761
     1   C  -   7   H       0.960231       0.979761

     2   C  -   1   C       0.995919       0.994717
     2   C  -   9   C       0.994710       0.975452
     2   C  -   8   C       0.994710       0.975452
     2   C  -   3   O       0.934761       0.948902

     3   O  -   2   C       0.934761       0.948902
     3   O  -   4   H       0.867115       0.973140
     3   O  -   9   C       0.030019       0.015335
     3   O  -   8   C       0.030019       0.015335

     4   H  -   3   O       0.867115       0.973140

     5   H  -   1   C       0.964761       0.986033

     6   H  -   1   C       0.960231       0.979761

     7   H  -   1   C       0.960231       0.979761

     8   C  -   2   C       0.994710       0.975452
     8   C  -  14   H       0.963953       0.980665
     8   C  -  10   H       0.960778       0.979559
     8   C  -  12   H       0.959974       0.978665
     8   C  -   3   O       0.030019       0.015335

     9   C  -   2   C       0.994710       0.975452
     9   C  -  15   H       0.963953       0.980665
     9   C  -  11   H       0.960778       0.979559
     9   C  -  13   H       0.959974       0.978665
     9   C  -   3   O       0.030019       0.015335

    10   H  -   8   C       0.960778       0.979559

    11   H  -   9   C       0.960778       0.979559

    12   H  -   8   C       0.959974       0.978665

    13   H  -   9   C       0.959974       0.978665

    14   H  -   8   C       0.963953       0.980665

    15   H  -   9   C       0.963953       0.980665


 Valency analysis:

   CEN ATOM   TOT.VALENCE
     1   C       3.945166
     2   C       3.930399
     3   O       1.935472
     4   H       0.889050
     5   H       0.984449
     6   H       0.982198
     7   H       0.982198
     8   C       3.947496
     9   C       3.947496
    10   H       0.982247
    11   H       0.982247
    12   H       0.983943
    13   H       0.983943
    14   H       0.985898
    15   H       0.985898

 Total charge composition:

   CEN ATOM         s          p       ELECTRONS ->P.CHARGE
     1   C       3.03922    3.34618      6.38540   -0.38540
     2   C       2.94004    2.80049      5.74053    0.25947
     3   O       3.65128    4.90642      8.55770   -0.55770
     4   H       0.66691                 0.66691    0.33309
     5   H       0.87529                 0.87529    0.12471
     6   H       0.86658                 0.86658    0.13342
     7   H       0.86658                 0.86658    0.13342
     8   C       3.04658    3.35264      6.39921   -0.39921
     9   C       3.04658    3.35264      6.39921   -0.39921
    10   H       0.86676                 0.86676    0.13324
    11   H       0.86676                 0.86676    0.13324
    12   H       0.87328                 0.87328    0.12672
    13   H       0.87328                 0.87328    0.12672
    14   H       0.88125                 0.88125    0.11875
    15   H       0.88125                 0.88125    0.11875

 Total charge composition, AO contributions:

   CEN ATOM SHL      SPHERICAL COMPONENTS
     1   C  1s       1.99141
     1   C  2s       1.04781
     1   C  2p       1.03360    1.15005    1.16253

     2   C  1s       1.99300
     2   C  2s       0.94705
     2   C  2p       1.00550    0.78579    1.00920

     3   O  1s       1.99720
     3   O  2s       1.65407
     3   O  2p       1.46359    1.49125    1.95159

     4   H  1s       0.66691

     5   H  1s       0.87529

     6   H  1s       0.86658

     7   H  1s       0.86658

     8   C  1s       1.99151
     8   C  2s       1.05507
     8   C  2p       1.13317    1.13289    1.08658

     9   C  1s       1.99151
     9   C  2s       1.05507
     9   C  2p       1.13317    1.13289    1.08658

    10   H  1s       0.86676

    11   H  1s       0.86676

    12   H  1s       0.87328

    13   H  1s       0.87328

    14   H  1s       0.88125

    15   H  1s       0.88125

 Summary of localized orbital composition:   [THRPRINT= 0.020]

   ORB  GRP  ORB.ENERGY      CENTERS/CHARGES
     1   1   -18.581455      O  3   2.000
     2   1    -9.842893      C  2   2.000
     3   1    -9.756656      C  8   2.000
     4   1    -9.756656      C  9   2.000
     5   1    -9.751210      C  1   2.000
     6   1    -0.659482      O  3   1.336   H  4   0.654
     7   1    -0.621319      O  3   1.285   C  2   0.695
     8   1    -0.484267      C  8   1.008   C  2   0.976
     9   1    -0.484267      C  9   1.008   C  2   0.976
    10   1    -0.483952      C  1   0.991   C  2   0.984   (other: 0.025)
    11   1    -0.476456      O  3   1.980
    12   1    -0.422204      C  9   1.123   H 13   0.863
    13   1    -0.422204      C  8   1.123   H 12   0.863
    14   1    -0.420437      C  8   1.114   H 14   0.874
    15   1    -0.420437      C  9   1.114   H 15   0.874
    16   1    -0.418316      C  1   1.118   H  5   0.868
    17   1    -0.416420      C  9   1.131   H 11   0.858
    18   1    -0.416420      C  8   1.131   H 10   0.858
    19   1    -0.412153      C  1   1.130   H  6   0.858
    20   1    -0.412153      C  1   1.130   H  7   0.858
    21   1    -0.219476      O  3   1.952   (other: 0.048)

 Localized orbitals saved to record      2200.2  (orbital set 4)


 **********************************************************************************************************************************
 DATASETS  * FILE   NREC   LENGTH (MB)   RECORD NAMES
              1      20    37756.57       500      610      700      900      950      970     1000      129      960     1100   
                                          VAR    BASINP    GEOM    SYMINP    ZMAT    AOBASIS   BASIS     P2S    ABASIS      S 
                                         1400     1410     1200     1210     1080     1600     1650     1300     1700     1800   
                                           T        V       H0       H01     AOSYM     SMH    MOLCAS    ERIS     OPER     GRID   

              2       5       19.57       700     1000      520     1800     2200   
                                         GEOM     BASIS   MCVARS    GRID      UKS  

 PROGRAMS   *        TOTAL      IBBA       UKS       INT
 CPU TIMES  *      2606.27      0.47   1401.06   1204.60
 REAL TIME  *      6781.31 SEC
 DISK USED  *       168.05 GB      
 **********************************************************************************************************************************
 Molecular orbitals read from record     2200.2  Type=UKS/LOCAL(IBO)  
 Occupation numbers read from record     2200.2  Type=UKS/LOCAL(IBO)  
 Orbital energies read from record       2200.2  Type=UKS/LOCAL(IBO)  
 Redundancy group numbers read from rec  2200.2  Type=UKS/BETA (state 1.1)

 IBBA/QZVP energy=      0.000000000000

        UKS-SCF 
   -232.29874843
 **********************************************************************************************************************************
 Molpro calculation terminated
