
 Primary working directories    : /tmp/sb13343
 Secondary working directories  : /tmp/sb13343
 Wavefunction directory         : /panfs/panasas01/chem/sb13343/wfu/
 Main file repository           : /tmp/sb13343/

 SHA1      : b4a5b34a9e711420743f49e6833241d17c61fb3c
 NAME      : 2099.9.b4a5b34
 ARCHNAME  : linux/x86_64_openmp
 FC        : /cm/shared/languages/GCC-6.1/bin/gfortran
 BLASLIB   : -lblas
 id        : simonbennie

 Nodes     nprocs
 node33-037    1

 Using customized tuning parameters: mindgm=1; mindgv=20; mindgc=4; mindgr=1; noblas=0; minvec=7
 default implementation of scratch files=df  

 memory,500,m
 geomtyp=xyz
 nosym
 noorient
 geometry={
 C          0.00000        0.00000        0.00000
 C          1.54025       -0.00009       -0.00004
 C         -0.51333        1.45219       -0.00005
 C         -0.51349       -0.72611       -1.25756
 C         -0.51342       -0.72599        1.25765
 H         -1.60999        1.48489       -0.00002
 H         -1.61015       -0.74237       -1.28580
 H         -1.61008       -0.74225        1.28596
 H         -0.16312        1.99638        0.88591
 H         -0.16316        1.99630       -0.88608
 H         -0.16333       -0.23096       -2.17186
 H         -0.16339       -1.76551       -1.28580
 H         -0.16332       -1.76539        1.28596
 H         -0.16320       -0.23077        2.17189
 H          1.93652       -1.02316       -0.00001
 H          1.93658        0.51138       -0.88607
 H          1.93663        0.51146        0.88592
 }
 basis={ default,svp }
 {ks,MM06-L,direct;wf,42,1,0}
 {ibba,bonds=1}

 Variables initialized (895), CPU time= 0.01 sec
 Commands  initialized (725), CPU time= 0.01 sec, 591 directives.
 Default parameters read. Elapsed time= 0.16 sec

 Checking input...
 Passed
1


                                         ***  PROGRAM SYSTEM MOLPRO  ***
                                       Copyright, TTI GmbH Stuttgart, 2015
                                    Version 2099.9 linked May 26 2017 16:03:21


 **********************************************************************************************************************************
 LABEL *                                                                                 
  64 bit serial version                                                                  DATE: 08-Jun-17          TIME: 22:28:12  
 **********************************************************************************************************************************

 SHA1:             b4a5b34a9e711420743f49e6833241d17c61fb3c
 **********************************************************************************************************************************
 SETTING GEOMTYP        =    XYZ

 Variable memory set to  500000000 words,  buffer space 

 ZSYMEL=NOSYM

 SETTING BASIS          =    SVP


 Recomputing integrals since basis changed


 Using spherical harmonics

 Library entry C      S def2-SVP             selected for orbital group  1
 Library entry C      P def2-SVP             selected for orbital group  1
 Library entry C      D def2-SVP             selected for orbital group  1
 Library entry H      S def2-SVP             selected for orbital group  2
 Library entry H      P def2-SVP             selected for orbital group  2


 PROGRAM * SEWARD (Integral evaluation for generally contracted gaussian basis sets)     Author: Roland Lindh, 1990

 Geometry written to block  1 of record 700


 Point group  C1  



 ATOMIC COORDINATES

 NR  ATOM    CHARGE       X              Y              Z

   1  C       6.00    0.000000000    0.000000000    0.000000000
   2  C       6.00    2.910650663   -0.000170075   -0.000075589
   3  C       6.00   -0.970053112    2.744241381   -0.000094486
   4  C       6.00   -0.970355468   -1.372149036   -2.376443985
   5  C       6.00   -0.970223187   -1.371922269    2.376614061
   6  H       1.00   -3.042440163    2.806035425   -0.000037795
   7  H       1.00   -3.042742519   -1.402875983   -2.429809851
   8  H       1.00   -3.042610239   -1.402649216    2.430112207
   9  H       1.00   -0.308252125    3.772611441    1.674127271
  10  H       1.00   -0.308327714    3.772460262   -1.674448524
  11  H       1.00   -0.308648968   -0.436451146   -4.104220581
  12  H       1.00   -0.308762351   -3.336330370   -2.429809851
  13  H       1.00   -0.308630071   -3.336103603    2.430112207
  14  H       1.00   -0.308403304   -0.436092098    4.104277273
  15  H       1.00    3.659492435   -1.933492182   -0.000018897
  16  H       1.00    3.659605818    0.966368146   -1.674429627
  17  H       1.00    3.659700305    0.966519324    1.674146168

 Bond lengths in Bohr (Angstrom)

  1- 2  2.910650669   1- 3  2.910646630   1- 4  2.910647475   1- 5  2.910635350   2-15  2.073282028
       ( 1.540250003)       ( 1.540247866)       ( 1.540248313)       ( 1.540241896)       ( 1.097133601)

  2-16  2.073304464   2-17  2.073302258   3- 6  2.073308129   3- 9  2.073293037   3-10  2.073300754
       ( 1.097145474)       ( 1.097144306)       ( 1.097147413)       ( 1.097139427)       ( 1.097143510)

  4- 7  2.073301752   4-11  2.073306055   4-12  2.073297296   5- 8  2.073305161   5-13  2.073300706
       ( 1.097144038)       ( 1.097146316)       ( 1.097141681)       ( 1.097145842)       ( 1.097143485)

  5-14  2.073307464
       ( 1.097147061)

 Bond angles

  1- 2-15  111.17643746   1- 2-16  111.17582452   1- 2-17  111.17607088   1- 3- 6  111.17575783

  1- 3- 9  111.17644989   1- 3-10  111.17611121   1- 4- 7  111.17614317   1- 4-11  111.17631877

  1- 4-12  111.17675056   1- 5- 8  111.17663037   1- 5-13  111.17645588   1- 5-14  111.17672823

  2-1-3  109.47117711   2-1-4  109.47117360   2-1-5  109.47107360   3-1-4  109.47144919

  3- 1- 5  109.47121161   4- 1- 5  109.47123870   6- 3- 9  107.71338639   6- 3-10  107.71391335

  7- 4-11  107.71323113   7- 4-12  107.71354587   8- 5-13  107.71328790   8- 5-14  107.71342022

  9- 3-10  107.71420977  11- 4-12  107.71378459  13- 5-14  107.71321488  15- 2-16  107.71365571

 15- 2-17  107.71411853  16- 2-17  107.71372051

 NUCLEAR CHARGE:                   42
 NUMBER OF PRIMITIVE AOS:         209
 NUMBER OF SYMMETRY AOS:          204
 NUMBER OF CONTRACTIONS:          130   ( 130A   )
 NUMBER OF CORE ORBITALS:           5   (   5A   )
 NUMBER OF VALENCE ORBITALS:       32   (  32A   )


 NUCLEAR REPULSION ENERGY  197.66618863


 Eigenvalues of metric

         1 0.175E-02 0.577E-02 0.577E-02 0.577E-02 0.252E-01 0.252E-01 0.252E-01 0.256E-01


 Contracted 2-electron integrals neglected if value below      1.0D-11
 AO integral compression algorithm  1   Integral accuracy      1.0D-11

     139.198 MB (compressed) written to integral file ( 45.3%)


 NUMBER OF SORTED TWO-ELECTRON INTEGRALS:   36256870.     BUFFER LENGTH:  32768
 NUMBER OF SEGMENTS:   3  SEGMENT LENGTH:   15998004      RECORD LENGTH: 524288

 Memory used in sort:      16.56 MW

 SORT1 READ    38373714. AND WROTE    33465425. INTEGRALS IN     97 RECORDS. CPU TIME:     0.48 SEC, REAL TIME:     0.88 SEC
 SORT2 READ    33465425. AND WROTE    36256870. INTEGRALS IN    531 RECORDS. CPU TIME:     0.79 SEC, REAL TIME:     0.99 SEC

 FILE SIZES:   FILE 1:   170.1 MBYTE,  FILE 4:   406.9 MBYTE,   TOTAL:    576.9 MBYTE

 OPERATOR DM      FOR CENTER  0  COORDINATES:    0.000000    0.000000    0.000000


 **********************************************************************************************************************************
 DATASETS  * FILE   NREC   LENGTH (MB)   RECORD NAMES
              1      19      153.85       500      610      700      900      950      970     1000      129      960     1100   
                                          VAR    BASINP    GEOM    SYMINP    ZMAT    AOBASIS   BASIS     P2S    ABASIS      S 
                                         1400     1410     1200     1210     1080     1600     1650     1300     1700   
                                           T        V       H0       H01     AOSYM     SMH    MOLCAS    ERIS     OPER   

 PROGRAMS   *        TOTAL       INT
 CPU TIMES  *         5.11      4.97
 REAL TIME  *         9.62 SEC
 DISK USED  *       577.52 MB      
 **********************************************************************************************************************************

 Density functional group MM06-L=M06LX+M06LC
 Functional: M06LX(Automatically generated (new) M06LX)                        Gradient terms: 2
 Functional: M06LC(Automatically generated (new) M06LC)                        Gradient terms: 2
 Use grid at  1800.2

 Functional: M06LX                     Factor:  1.0000
 Functional: M06LC                     Factor:  1.0000

 Generated new metagrid on record  1800.2 with target accuracy 1.0D-06 and 57016 points in CPU time    1.7
 Computed new grid on record 1800.1 in CPU time    2.0
  206573 words reserved for DFT integration

 PROGRAM * RKS-SCF (Restricted closed shell Kohn-Sham)     Authors: W. Meyer, H.-J. Werner, P.J. Knowles, 1993

 NUMBER OF ELECTRONS:      21+   21-    SPACE SYMMETRY=1    SPIN SYMMETRY: Singlet 
 CONVERGENCE THRESHOLDS:    1.00E-05 (Density)    1.00E-06 (Energy)
 MAX. NUMBER OF ITERATIONS:       60
 INTERPOLATION TYPE:            DIIS
 INTERPOLATION STEPS:              2 (START)      1 (STEP)
 LEVEL SHIFTS:                  0.00 (CLOSED)  0.00 (OPEN) 



 Use fine grid record 1800.2 for energy threshold  1.0D-06
 Orbital guess generated from atomic densities. Full valence occupancy:   21

 Molecular orbital dump at record        2100.2

 Initial occupancy:  21

 ITERATION    DDIFF          GRAD             ENERGY        2-EL.EN.            DIPOLE MOMENTS         DIIS   ORB.
    1      0.000D+00      0.000D+00      -197.33585148    600.183195    0.00008   -0.00065   -0.00000    0    start
    2      0.000D+00      0.991D-02      -197.05442548    559.409416   -0.03042   -0.03615    0.00002    1    diag
    3      0.230D-01      0.145D-01      -197.59408142    584.031957    0.00121   -0.00280   -0.00000    2    diag
    4      0.157D-01      0.118D-02      -197.59669287    583.279388   -0.00173   -0.00726    0.00000    3    diag
    5      0.133D-02      0.510D-03      -197.59724208    583.452042   -0.00270   -0.00746    0.00000    4    diag
    6      0.496D-03      0.471D-04      -197.59724733    583.411515   -0.00208   -0.00662    0.00000    5    diag
    7      0.590D-04      0.745D-05      -197.59724746    583.407070   -0.00264   -0.00716    0.00000    6    diag
    8      0.129D-04      0.134D-05      -197.59724746    583.407188   -0.00235   -0.00692    0.00000    7    diag
    9      0.185D-05      0.649D-06      -197.59724746    583.407230   -0.00258   -0.00703    0.00000    0    orth

 Final occupancy:  21

 !RKS STATE 1.1 Energy               -197.597247460900
 Nuclear energy                       197.66618863
 One-electron energy                 -655.37529574
 Two-electron energy                  291.70361524
 Density functional                   -31.59175559     M06LX=-30.14757991 M06LC= -1.44417567
 Virial quotient                       -1.01265133
 !RKS STATE 1.1 Dipole moment          -0.00258499    -0.00702667     0.00000288
 Dipole moment /Debye                  -0.00656995    -0.01785883     0.00000733

 Orbital energies:

         1.1          2.1          3.1          4.1          5.1          6.1          7.1          8.1          9.1         10.1
    -10.068139   -10.046222   -10.046213   -10.046176   -10.045912    -0.770953    -0.635673    -0.635521    -0.635359    -0.489614

        11.1         12.1         13.1         14.1         15.1         16.1         17.1         18.1         19.1         20.1
     -0.407105    -0.406733    -0.406673    -0.359615    -0.359565    -0.326254    -0.326100    -0.325692    -0.288180    -0.287592

        21.1         22.1         23.1
     -0.287450     0.059606     0.108653

 HOMO     21.1    -0.287450 =      -7.8219eV
 LUMO     22.1     0.059606 =       1.6220eV
 LUMO-HOMO         0.347056 =       9.4439eV


 **********************************************************************************************************************************
 DATASETS  * FILE   NREC   LENGTH (MB)   RECORD NAMES
              1      20      155.67       500      610      700      900      950      970     1000      129      960     1100   
                                          VAR    BASINP    GEOM    SYMINP    ZMAT    AOBASIS   BASIS     P2S    ABASIS      S 
                                         1400     1410     1200     1210     1080     1600     1650     1300     1700     1800   
                                           T        V       H0       H01     AOSYM     SMH    MOLCAS    ERIS     OPER     GRID   

              2       5        3.39       700     1000      520     1800     2100   
                                         GEOM     BASIS   MCVARS    GRID      RKS  

 PROGRAMS   *        TOTAL        KS       INT
 CPU TIMES  *        54.06     48.95      4.97
 REAL TIME  *        59.23 SEC
 DISK USED  *       577.52 MB      
 **********************************************************************************************************************************


 PROGRAM * Intrinsic Basis Bonding Analysis (IBBA)          Author: G. Knizia

 Molecular orbitals read from record     2100.2  Type=RKS/CANONICAL (state 1.1)
 Fock matrix read from record            2100.2  Type=RKS/TOTAL (state 1.1)
 Orbital energies read from record       2100.2  Type=RKS/CANONICAL (state 1.1)
 Density matrix read from record         2100.2  Type=RKS/CHARGE (state 1.1)

 Number of core orbitals:           5 (   5 )
 Number of closed-shell orbitals:  16 (  16 )

 Basis set MINAO-AUTO-PP generated.      Number of basis functions:   37 

 Polarized AO type:                A = (O Ot + (1-O)(1-Ot)) P12
 Orthogonalization method:         Symmetric (Loewdin)
 Localization functional:          L = sum[A,i] <i|n_A|i>^4 -> max

 Localization group 1:  21 orbitals, occupancy  2.000
 Iterative localization: IB/PM,    7 iter; Final gradient 0.45E-08

 Bond order analysis:       [THRPRINT= 0.020]

   CEN ATOM   CEN ATOM     WIBERG.BO      RENORM.BO
     1   C  -   3   C       0.997772       0.998122
     1   C  -   5   C       0.997622       0.998044
     1   C  -   4   C       0.997620       0.998043
     1   C  -   2   C       0.997217       0.997577

     2   C  -   1   C       0.997217       0.997577
     2   C  -  15   H       0.965731       0.981594
     2   C  -  16   H       0.965634       0.981438
     2   C  -  17   H       0.965634       0.981438

     3   C  -   1   C       0.997772       0.998122
     3   C  -  10   H       0.965500       0.981355
     3   C  -   9   H       0.965500       0.981355
     3   C  -   6   H       0.965441       0.981473

     4   C  -   1   C       0.997620       0.998043
     4   C  -  11   H       0.965401       0.981218
     4   C  -   7   H       0.965398       0.981419
     4   C  -  12   H       0.965333       0.981466

     5   C  -   1   C       0.997622       0.998044
     5   C  -  14   H       0.965401       0.981218
     5   C  -   8   H       0.965398       0.981418
     5   C  -  13   H       0.965333       0.981466

     6   H  -   3   C       0.965441       0.981473

     7   H  -   4   C       0.965398       0.981419

     8   H  -   5   C       0.965398       0.981418

     9   H  -   3   C       0.965500       0.981355

    10   H  -   3   C       0.965500       0.981355

    11   H  -   4   C       0.965401       0.981218

    12   H  -   4   C       0.965333       0.981466

    13   H  -   5   C       0.965333       0.981466

    14   H  -   5   C       0.965401       0.981218

    15   H  -   2   C       0.965731       0.981594

    16   H  -   2   C       0.965634       0.981438

    17   H  -   2   C       0.965634       0.981438


 Valency analysis:

   CEN ATOM   TOT.VALENCE
     1   C       3.995522
     2   C       3.947534
     3   C       3.947271
     4   C       3.947152
     5   C       3.947152
     6   H       0.984332
     7   H       0.984362
     8   H       0.984363
     9   H       0.984478
    10   H       0.984479
    11   H       0.984519
    12   H       0.984260
    13   H       0.984260
    14   H       0.984520
    15   H       0.984520
    16   H       0.984485
    17   H       0.984485

 Total charge composition:

   CEN ATOM         s          p       ELECTRONS ->P.CHARGE
     1   C       2.93191    2.97915      5.91106    0.08894
     2   C       3.03888    3.35686      6.39574   -0.39574
     3   C       3.03900    3.35826      6.39726   -0.39726
     4   C       3.03885    3.35799      6.39684   -0.39684
     5   C       3.03885    3.35799      6.39684   -0.39684
     6   H       0.87483                 0.87483    0.12517
     7   H       0.87495                 0.87495    0.12505
     8   H       0.87495                 0.87495    0.12505
     9   H       0.87541                 0.87541    0.12459
    10   H       0.87542                 0.87542    0.12458
    11   H       0.87558                 0.87558    0.12442
    12   H       0.87454                 0.87454    0.12546
    13   H       0.87454                 0.87454    0.12546
    14   H       0.87558                 0.87558    0.12442
    15   H       0.87558                 0.87558    0.12442
    16   H       0.87544                 0.87544    0.12456
    17   H       0.87544                 0.87544    0.12456

 Total charge composition, AO contributions:

   CEN ATOM SHL      SPHERICAL COMPONENTS
     1   C  1s       1.99186
     1   C  2s       0.94005
     1   C  2p       0.99311    0.99326    0.99278

     2   C  1s       1.99087
     2   C  2s       1.04801
     2   C  2p       1.05671    1.15043    1.14972

     3   C  1s       1.99087
     3   C  2s       1.04813
     3   C  2p       1.14049    1.06761    1.15016

     4   C  1s       1.99087
     4   C  2s       1.04798
     4   C  2p       1.14021    1.13038    1.08740

     5   C  1s       1.99087
     5   C  2s       1.04798
     5   C  2p       1.14021    1.13039    1.08739

     6   H  1s       0.87483

     7   H  1s       0.87495

     8   H  1s       0.87495

     9   H  1s       0.87541

    10   H  1s       0.87542

    11   H  1s       0.87558

    12   H  1s       0.87454

    13   H  1s       0.87454

    14   H  1s       0.87558

    15   H  1s       0.87558

    16   H  1s       0.87544

    17   H  1s       0.87544

 Summary of localized orbital composition:   [THRPRINT= 0.020]

   ORB  GRP  ORB.ENERGY      CENTERS/CHARGES
     1   1    -9.971632      C  1   2.000
     2   1    -9.932111      C  4   2.000
     3   1    -9.932110      C  5   2.000
     4   1    -9.932054      C  3   2.000
     5   1    -9.931802      C  2   2.000
     6   1    -0.512937      C  3   1.013   C  1   0.962   (other: 0.025)
     7   1    -0.512927      C  5   1.012   C  1   0.962   (other: 0.025)
     8   1    -0.512924      C  4   1.012   C  1   0.962   (other: 0.025)
     9   1    -0.512669      C  2   1.012   C  1   0.962   (other: 0.025)
    10   1    -0.454688      C  4   1.124   H 12   0.867
    11   1    -0.454685      C  5   1.124   H 13   0.867
    12   1    -0.454360      C  3   1.124   H  6   0.867
    13   1    -0.454331      C  4   1.124   H  7   0.867
    14   1    -0.454330      C  5   1.124   H  8   0.867
    15   1    -0.454067      C  2   1.123   H 17   0.868
    16   1    -0.454065      C  2   1.123   H 16   0.868
    17   1    -0.453912      C  3   1.123   H  9   0.868
    18   1    -0.453910      C  3   1.123   H 10   0.868
    19   1    -0.453907      C  2   1.123   H 15   0.868
    20   1    -0.453661      C  4   1.123   H 11   0.868
    21   1    -0.453660      C  5   1.123   H 14   0.868

 Localized orbitals saved to record      2100.2  (orbital set 2)


 **********************************************************************************************************************************
 DATASETS  * FILE   NREC   LENGTH (MB)   RECORD NAMES
              1      20      155.67       500      610      700      900      950      970     1000      129      960     1100   
                                          VAR    BASINP    GEOM    SYMINP    ZMAT    AOBASIS   BASIS     P2S    ABASIS      S 
                                         1400     1410     1200     1210     1080     1600     1650     1300     1700     1800   
                                           T        V       H0       H01     AOSYM     SMH    MOLCAS    ERIS     OPER     GRID   

              2       5        3.53       700     1000      520     1800     2100   
                                         GEOM     BASIS   MCVARS    GRID      RKS  

 PROGRAMS   *        TOTAL      IBBA        KS       INT
 CPU TIMES  *        54.10      0.04     48.95      4.97
 REAL TIME  *        59.36 SEC
 DISK USED  *       577.52 MB      
 **********************************************************************************************************************************
 Molecular orbitals read from record     2100.2  Type=RKS/LOCAL(IBO)  
 Occupation numbers read from record     2100.2  Type=RKS/LOCAL(IBO)  
 Orbital energies read from record       2100.2  Type=RKS/LOCAL(IBO)  
 Redundancy group numbers read from rec  2100.2  Type=RKS/LOCAL(IBO)  

 IBBA/SVP energy=      0.000000000000

        KS-SCF  
   -197.59724746
 **********************************************************************************************************************************
 Molpro calculation terminated
