
 Primary working directories    : /local
 Secondary working directories  : /local
 Wavefunction directory         : /local/
 Main file repository           : /local/

 SHA1      : b4a5b34a9e711420743f49e6833241d17c61fb3c
 NAME      : 2099.9.b4a5b34
 ARCHNAME  : linux/x86_64_openmp
 FC        : /cm/shared/languages/GCC-6.1/bin/gfortran
 BLASLIB   : -lblas
 id        : simonbennie

 Nodes     nprocs
 node47-022    1

 Using customized tuning parameters: mindgm=1; mindgv=20; mindgc=4; mindgr=1; noblas=0; minvec=7
 default implementation of scratch files=df  

 memory,500,m
 geomtyp=xyz
 nosym
 noorient
 geometry={
 C         -1.53233        0.02247        0.00000
 C         -0.00192        0.01421        0.00000
 O          0.37239        1.40356        0.00000
 H          1.34248        1.44036        0.00000
 H         -1.92991       -0.99819        0.00000
 H         -1.90797        0.54382       -0.88653
 H         -1.90797        0.54382        0.88653
 C          0.54303       -0.66466       -1.26580
 C          0.54303       -0.66466        1.26580
 H          0.17836       -0.14752       -2.15943
 H          0.17836       -0.14752        2.15943
 H          0.23752       -1.71600       -1.32280
 H          0.23752       -1.71600        1.32280
 H          1.64084       -0.63767       -1.28032
 H          1.64084       -0.63767        1.28032
 }
 basis={ default,qzvp }
 {ks,B-LYP,direct;wf,42,1,0}
 {ibba,bonds=1}

 Variables initialized (895), CPU time= 0.01 sec
 Commands  initialized (725), CPU time= 0.01 sec, 591 directives.
 Default parameters read. Elapsed time= 0.18 sec

 Checking input...
 Passed
1


                                         ***  PROGRAM SYSTEM MOLPRO  ***
                                       Copyright, TTI GmbH Stuttgart, 2015
                                    Version 2099.9 linked May 26 2017 16:03:21


 **********************************************************************************************************************************
 LABEL *                                                                                 
  64 bit serial version                                                                  DATE: 12-Jun-17          TIME: 18:33:51  
 **********************************************************************************************************************************

 SHA1:             b4a5b34a9e711420743f49e6833241d17c61fb3c
 **********************************************************************************************************************************
 SETTING GEOMTYP        =    XYZ

 Variable memory set to  500000000 words,  buffer space 

 ZSYMEL=NOSYM

 SETTING BASIS          =    QZVP


 Recomputing integrals since basis changed


 Using spherical harmonics

 Library entry C      S def2-QZVP            selected for orbital group  1
 Library entry C      P def2-QZVP            selected for orbital group  1
 Library entry C      D def2-QZVP            selected for orbital group  1
 Library entry C      F def2-QZVP            selected for orbital group  1
 Library entry C      G def2-QZVP            selected for orbital group  1
 Library entry O      S def2-QZVP            selected for orbital group  2
 Library entry O      P def2-QZVP            selected for orbital group  2
 Library entry O      D def2-QZVP            selected for orbital group  2
 Library entry O      F def2-QZVP            selected for orbital group  2
 Library entry O      G def2-QZVP            selected for orbital group  2
 Library entry H      S def2-QZVP            selected for orbital group  3
 Library entry H      P def2-QZVP            selected for orbital group  3
 Library entry H      D def2-QZVP            selected for orbital group  3
 Library entry H      F def2-QZVP            selected for orbital group  3


 PROGRAM * SEWARD (Integral evaluation for generally contracted gaussian basis sets)     Author: Roland Lindh, 1990

 Geometry written to block  1 of record 700


 Point group  C1  



 ATOMIC COORDINATES

 NR  ATOM    CHARGE       X              Y              Z

   1  C       6.00   -2.895684032    0.042462146    0.000000000
   2  C       6.00   -0.003628274    0.026853008    0.000000000
   3  O       8.00    0.703715112    2.652343999    0.000000000
   4  H       1.00    2.536919528    2.721885921    0.000000000
   5  H       1.00   -3.647001345   -1.886305720    0.000000000
   6  H       1.00   -3.605540754    1.027670861   -1.675298901
   7  H       1.00   -3.605540754    1.027670861    1.675298901
   8  C       6.00    1.026177977   -1.256025366   -2.392015328
   9  C       6.00    1.026177977   -1.256025366    2.392015328
  10  H       1.00    0.337051552   -0.278772398   -4.080731285
  11  H       1.00    0.337051552   -0.278772398    4.080731285
  12  H       1.00    0.448847749   -3.242770030   -2.499729718
  13  H       1.00    0.448847749   -3.242770030    2.499729718
  14  H       1.00    3.100738214   -1.205021658   -2.419454152
  15  H       1.00    3.100738214   -1.205021658    2.419454152

 Bond lengths in Bohr (Angstrom)

 1-2  2.892097881  1-5  2.069933136  1-6  2.069096224  1-7  2.069096224  2-3  2.719106031
     ( 1.530432290)     ( 1.095361444)     ( 1.094918569)     ( 1.094918569)     ( 1.438888946)

  2- 8  2.903104402   2- 9  2.903104402   3- 4  1.834522965   8-10  2.069222119   8-12  2.071730422
       ( 1.536256691)       ( 1.536256691)       ( 0.970787746)       ( 1.094985190)       ( 1.096312526)

  8-14  2.075368508   9-11  2.069222119   9-13  2.071730422   9-15  2.075368508
       ( 1.098237719)       ( 1.094985190)       ( 1.096312526)       ( 1.098237719)

 Bond angles

  1-2-3  104.76902697   1-2-8  110.92255387   1-2-9  110.92255387   2-1-5  110.97328220

  2- 1- 6  110.22090701   2- 1- 7  110.22090701   2- 3- 4  107.25071562   2- 8-10  110.21836376

  2- 8-12  111.57747468   2- 8-14  110.77023896   2- 9-11  110.21836376   2- 9-13  111.57747468

  2- 9-15  110.77023896   3- 2- 8  109.53648747   3- 2- 9  109.53648747   5- 1- 6  108.61190457

  5- 1- 7  108.61190457   6- 1- 7  108.12870271   8- 2- 9  110.96453384  10- 8-12  108.52192632

 10- 8-14  108.08997829  11- 9-13  108.52192632  11- 9-15  108.08997829  12- 8-14  107.54424578

 13- 9-15  107.54424578

 NUCLEAR CHARGE:                   42
 NUMBER OF PRIMITIVE AOS:         840
 NUMBER OF SYMMETRY AOS:          715
 NUMBER OF CONTRACTIONS:          585   ( 585A   )
 NUMBER OF CORE ORBITALS:           5   (   5A   )
 NUMBER OF VALENCE ORBITALS:       30   (  30A   )


 NUCLEAR REPULSION ENERGY  198.77359127


 Eigenvalues of metric

         1 0.447E-04 0.459E-04 0.470E-04 0.743E-04 0.823E-04 0.917E-04 0.943E-04 0.107E-03


 Contracted 2-electron integrals neglected if value below      1.0D-12
 AO integral compression algorithm  1   Integral accuracy      1.0D-12

     40752.906 MB (compressed) written to integral file ( 33.4%)


 NUMBER OF SORTED TWO-ELECTRON INTEGRALS:14689922715.     BUFFER LENGTH:  32768
 NUMBER OF SEGMENTS: 184  SEGMENT LENGTH:   79999773      RECORD LENGTH: 262144

 Memory used in sort:      80.29 MW

 SORT1 READ 15248138275. AND WROTE 10587813328. INTEGRALS IN  60679 RECORDS. CPU TIME:   178.83 SEC, REAL TIME:  2743.77 SEC
 SORT2 READ 10587813328. AND WROTE 14689922715. INTEGRALS IN 155460 RECORDS. CPU TIME:   274.75 SEC, REAL TIME:  5512.44 SEC

 FILE SIZES:   FILE 1: 40795.6 MBYTE,  FILE 4:127253.1 MBYTE,   TOTAL: 168048.8 MBYTE

 OPERATOR DM      FOR CENTER  0  COORDINATES:    0.000000    0.000000    0.000000


 **********************************************************************************************************************************
 DATASETS  * FILE   NREC   LENGTH (MB)   RECORD NAMES
              1      19    37754.71       500      610      700      900      950      970     1000      129      960     1100   
                                          VAR    BASINP    GEOM    SYMINP    ZMAT    AOBASIS   BASIS     P2S    ABASIS      S 
                                         1400     1410     1200     1210     1080     1600     1650     1300     1700   
                                           T        V       H0       H01     AOSYM     SMH    MOLCAS    ERIS     OPER   

 PROGRAMS   *        TOTAL       INT
 CPU TIMES  *      1086.12   1085.97
 REAL TIME  *      8964.70 SEC
 DISK USED  *       168.05 GB      
 **********************************************************************************************************************************

 Density functional group B-LYP=B88+LYP
 Functional: B88(Automatically generated (new) B88)                            Gradient terms: 1
 Functional: LYP(Automatically generated (new) LYP)                            Gradient terms: 1
 Use grid at  1800.2

 Functional: B88                       Factor:  1.0000
 Functional: LYP                       Factor:  1.0000

 Generated new metagrid on record  1800.2 with target accuracy 1.0D-06 and 58228 points in CPU time    1.6
 Computed new grid on record 1800.1 in CPU time    1.8
  469144 words reserved for DFT integration

 PROGRAM * RKS-SCF (Restricted closed shell Kohn-Sham)     Authors: W. Meyer, H.-J. Werner, P.J. Knowles, 1993

 NUMBER OF ELECTRONS:      21+   21-    SPACE SYMMETRY=1    SPIN SYMMETRY: Singlet 
 CONVERGENCE THRESHOLDS:    1.00E-05 (Density)    1.00E-06 (Energy)
 MAX. NUMBER OF ITERATIONS:       60
 INTERPOLATION TYPE:            DIIS
 INTERPOLATION STEPS:              2 (START)      1 (STEP)
 LEVEL SHIFTS:                  0.00 (CLOSED)  0.00 (OPEN) 



 Use fine grid record 1800.2 for energy threshold  1.0D-06
 Orbital guess generated from atomic densities. Full valence occupancy:   21

 Molecular orbital dump at record        2100.2

 Initial occupancy:  21

 ITERATION    DDIFF          GRAD             ENERGY        2-EL.EN.            DIPOLE MOMENTS         DIIS   ORB.
    1      0.000D+00      0.000D+00      -233.32362641    641.660836    0.70295   -0.80691    0.00000    0    start
    2      0.000D+00      0.548D-02      -232.54422025    583.760749   -0.80386    0.43780   -0.00000    1    diag
    3      0.193D-01      0.964D-02      -233.65014661    624.470627    0.43621   -0.78681    0.00000    2    diag
    4      0.187D-01      0.152D-02      -233.66887712    622.006109    0.32904   -0.38749    0.00000    3    diag
    5      0.689D-03      0.615D-03      -233.67204809    621.586520    0.31467   -0.53902    0.00000    4    diag
    6      0.171D-03      0.197D-03      -233.67241750    621.867248    0.32167   -0.50615    0.00000    5    diag
    7      0.511D-04      0.563D-04      -233.67244482    621.863511    0.32639   -0.50520    0.00000    6    diag
    8      0.121D-04      0.722D-05      -233.67244545    621.885959    0.32498   -0.51036    0.00000    7    diag
    9      0.420D-05      0.213D-05      -233.67244543    621.883743    0.32604   -0.50728    0.00000    0    orth

 Final occupancy:  21

 !RKS STATE 1.1 Energy               -233.672445434190
 Nuclear energy                       198.77359127
 One-electron energy                 -709.43794838
 Two-electron energy                  310.94187168
 Density functional                   -33.94996000     B88=-32.57541354 LYP= -1.37454647
 Virial quotient                       -1.00356215
 !RKS STATE 1.1 Dipole moment           0.32603517    -0.50728317     0.00000000
 Dipole moment /Debye                   0.82864446    -1.28930077     0.00000000

 Orbital energies:

         1.1          2.1          3.1          4.1          5.1          6.1          7.1          8.1          9.1         10.1
    -18.767869    -9.967031    -9.900019    -9.900018    -9.895372    -0.923712    -0.708158    -0.619090    -0.618323    -0.508499

        11.1         12.1         13.1         14.1         15.1         16.1         17.1         18.1         19.1         20.1
     -0.435171    -0.399812    -0.397231    -0.363175    -0.350094    -0.334442    -0.321281    -0.309647    -0.303491    -0.276316

        21.1         22.1         23.1
     -0.224025    -0.011672     0.024740

 HOMO     21.1    -0.224025 =      -6.0960eV
 LUMO     22.1    -0.011672 =      -0.3176eV
 LUMO-HOMO         0.212353 =       5.7784eV


 **********************************************************************************************************************************
 DATASETS  * FILE   NREC   LENGTH (MB)   RECORD NAMES
              1      20    37756.57       500      610      700      900      950      970     1000      129      960     1100   
                                          VAR    BASINP    GEOM    SYMINP    ZMAT    AOBASIS   BASIS     P2S    ABASIS      S 
                                         1400     1410     1200     1210     1080     1600     1650     1300     1700     1800   
                                           T        V       H0       H01     AOSYM     SMH    MOLCAS    ERIS     OPER     GRID   

              2       5        9.95       700     1000      520     1800     2100   
                                         GEOM     BASIS   MCVARS    GRID      RKS  

 PROGRAMS   *        TOTAL        KS       INT
 CPU TIMES  *      2038.23    952.11   1085.97
 REAL TIME  *     14348.84 SEC
 DISK USED  *       168.05 GB      
 **********************************************************************************************************************************


 PROGRAM * Intrinsic Basis Bonding Analysis (IBBA)          Author: G. Knizia

 Molecular orbitals read from record     2100.2  Type=RKS/CANONICAL (state 1.1)
 Fock matrix read from record            2100.2  Type=RKS/TOTAL (state 1.1)
 Orbital energies read from record       2100.2  Type=RKS/CANONICAL (state 1.1)
 Density matrix read from record         2100.2  Type=RKS/CHARGE (state 1.1)

 Number of core orbitals:           5 (   5 )
 Number of closed-shell orbitals:  16 (  16 )

 Basis set MINAO-AUTO-PP generated.      Number of basis functions:   35 

 Polarized AO type:                A = (O Ot + (1-O)(1-Ot)) P12
 Orthogonalization method:         Symmetric (Loewdin)
 Localization functional:          L = sum[A,i] <i|n_A|i>^4 -> max

 Localization group 1:  21 orbitals, occupancy  2.000
 Iterative localization: IB/PM,    7 iter; Final gradient 0.15E-08

 Bond order analysis:       [THRPRINT= 0.020]

   CEN ATOM   CEN ATOM     WIBERG.BO      RENORM.BO
     1   C  -   2   C       0.996157       0.993991
     1   C  -   5   H       0.962315       0.986205
     1   C  -   6   H       0.957679       0.980101
     1   C  -   7   H       0.957679       0.980101

     2   C  -   1   C       0.996157       0.993991
     2   C  -   9   C       0.994921       0.974907
     2   C  -   8   C       0.994921       0.974907
     2   C  -   3   O       0.934238       0.946930

     3   O  -   2   C       0.934238       0.946930
     3   O  -   4   H       0.862495       0.973367
     3   O  -   9   C       0.029909       0.015294
     3   O  -   8   C       0.029909       0.015294

     4   H  -   3   O       0.862495       0.973367

     5   H  -   1   C       0.962315       0.986205

     6   H  -   1   C       0.957679       0.980101

     7   H  -   1   C       0.957679       0.980101

     8   C  -   2   C       0.994921       0.974907
     8   C  -  14   H       0.961660       0.980954
     8   C  -  10   H       0.958216       0.979906
     8   C  -  12   H       0.957541       0.979159
     8   C  -   3   O       0.029909       0.015294

     9   C  -   2   C       0.994921       0.974907
     9   C  -  15   H       0.961660       0.980954
     9   C  -  11   H       0.958216       0.979906
     9   C  -  13   H       0.957541       0.979159
     9   C  -   3   O       0.029909       0.015294

    10   H  -   8   C       0.958216       0.979906

    11   H  -   9   C       0.958216       0.979906

    12   H  -   8   C       0.957541       0.979159

    13   H  -   9   C       0.957541       0.979159

    14   H  -   8   C       0.961660       0.980954

    15   H  -   9   C       0.961660       0.980954


 Valency analysis:

   CEN ATOM   TOT.VALENCE
     1   C       3.937686
     2   C       3.930957
     3   O       1.929695
     4   H       0.884159
     5   H       0.982133
     6   H       0.979671
     7   H       0.979671
     8   C       3.940189
     9   C       3.940189
    10   H       0.979694
    11   H       0.979694
    12   H       0.981507
    13   H       0.981507
    14   H       0.983636
    15   H       0.983636

 Total charge composition:

   CEN ATOM         s          p       ELECTRONS ->P.CHARGE
     1   C       3.04221    3.36875      6.41096   -0.41096
     2   C       2.93966    2.80627      5.74592    0.25408
     3   O       3.65173    4.91351      8.56524   -0.56524
     4   H       0.65965                 0.65965    0.34035
     5   H       0.86633                 0.86633    0.13367
     6   H       0.85742                 0.85742    0.14258
     7   H       0.85742                 0.85742    0.14258
     8   C       3.04936    3.37557      6.42494   -0.42494
     9   C       3.04936    3.37557      6.42494   -0.42494
    10   H       0.85750                 0.85750    0.14250
    11   H       0.85750                 0.85750    0.14250
    12   H       0.86401                 0.86401    0.13599
    13   H       0.86401                 0.86401    0.13599
    14   H       0.87208                 0.87208    0.12792
    15   H       0.87208                 0.87208    0.12792

 Total charge composition, AO contributions:

   CEN ATOM SHL      SPHERICAL COMPONENTS
     1   C  1s       1.99142
     1   C  2s       1.05080
     1   C  2p       1.03682    1.15962    1.17231

     2   C  1s       1.99302
     2   C  2s       0.94664
     2   C  2p       1.00767    0.78739    1.01121

     3   O  1s       1.99721
     3   O  2s       1.65452
     3   O  2p       1.47012    1.49128    1.95211

     4   H  1s       0.65965

     5   H  1s       0.86633

     6   H  1s       0.85742

     7   H  1s       0.85742

     8   C  1s       1.99152
     8   C  2s       1.05784
     8   C  2p       1.14211    1.14144    1.09203

     9   C  1s       1.99152
     9   C  2s       1.05784
     9   C  2p       1.14211    1.14144    1.09203

    10   H  1s       0.85750

    11   H  1s       0.85750

    12   H  1s       0.86401

    13   H  1s       0.86401

    14   H  1s       0.87208

    15   H  1s       0.87208

 Summary of localized orbital composition:   [THRPRINT= 0.020]

   ORB  GRP  ORB.ENERGY      CENTERS/CHARGES
     1   1   -18.613853      O  3   2.000
     2   1    -9.877443      C  2   2.000
     3   1    -9.788017      C  8   2.000
     4   1    -9.788017      C  9   2.000
     5   1    -9.782626      C  1   2.000
     6   1    -0.692639      O  3   1.343   H  4   0.647
     7   1    -0.652140      O  3   1.285   C  2   0.696
     8   1    -0.514821      C  9   1.007   C  2   0.977
     9   1    -0.514821      C  8   1.007   C  2   0.977
    10   1    -0.514454      C  1   0.990   C  2   0.985   (other: 0.025)
    11   1    -0.506738      O  3   1.981
    12   1    -0.451758      C  9   1.131   H 13   0.854
    13   1    -0.451758      C  8   1.131   H 12   0.854
    14   1    -0.450122      C  9   1.123   H 15   0.864
    15   1    -0.450122      C  8   1.123   H 14   0.864
    16   1    -0.447828      C  1   1.127   H  5   0.859
    17   1    -0.445899      C  8   1.140   H 10   0.849
    18   1    -0.445899      C  9   1.140   H 11   0.849
    19   1    -0.441575      C  1   1.139   H  7   0.849
    20   1    -0.441575      C  1   1.139   H  6   0.849
    21   1    -0.250669      O  3   1.952   (other: 0.048)

 Localized orbitals saved to record      2100.2  (orbital set 2)


 **********************************************************************************************************************************
 DATASETS  * FILE   NREC   LENGTH (MB)   RECORD NAMES
              1      20    37756.57       500      610      700      900      950      970     1000      129      960     1100   
                                          VAR    BASINP    GEOM    SYMINP    ZMAT    AOBASIS   BASIS     P2S    ABASIS      S 
                                         1400     1410     1200     1210     1080     1600     1650     1300     1700     1800   
                                           T        V       H0       H01     AOSYM     SMH    MOLCAS    ERIS     OPER     GRID   

              2       5       12.70       700     1000      520     1800     2100   
                                         GEOM     BASIS   MCVARS    GRID      RKS  

 PROGRAMS   *        TOTAL      IBBA        KS       INT
 CPU TIMES  *      2038.67      0.44    952.11   1085.97
 REAL TIME  *     14349.47 SEC
 DISK USED  *       168.05 GB      
 **********************************************************************************************************************************
 Molecular orbitals read from record     2100.2  Type=RKS/LOCAL(IBO)  
 Occupation numbers read from record     2100.2  Type=RKS/LOCAL(IBO)  
 Orbital energies read from record       2100.2  Type=RKS/LOCAL(IBO)  
 Redundancy group numbers read from rec  2100.2  Type=RKS/LOCAL(IBO)  

 IBBA/QZVP energy=      0.000000000000

        KS-SCF  
   -233.67244543
 **********************************************************************************************************************************
 Molpro calculation terminated
