
 Primary working directories    : /tmp/sb13343
 Secondary working directories  : /tmp/sb13343
 Wavefunction directory         : /panfs/panasas01/chem/sb13343/wfu/
 Main file repository           : /tmp/sb13343/

 SHA1      : b4a5b34a9e711420743f49e6833241d17c61fb3c
 NAME      : 2099.9.b4a5b34
 ARCHNAME  : linux/x86_64_openmp
 FC        : /cm/shared/languages/GCC-6.1/bin/gfortran
 BLASLIB   : -lblas
 id        : simonbennie

 Nodes     nprocs
 node32-002    1

 Using customized tuning parameters: mindgm=1; mindgv=20; mindgc=4; mindgr=1; noblas=0; minvec=7
 default implementation of scratch files=df  

 memory,500,m
 geomtyp=xyz
 nosym
 noorient
 geometry={
 C         -1.53233        0.02247        0.00000
 C         -0.00192        0.01421        0.00000
 O          0.37239        1.40356        0.00000
 H          1.34248        1.44036        0.00000
 H         -1.92991       -0.99819        0.00000
 H         -1.90797        0.54382       -0.88653
 H         -1.90797        0.54382        0.88653
 C          0.54303       -0.66466       -1.26580
 C          0.54303       -0.66466        1.26580
 H          0.17836       -0.14752       -2.15943
 H          0.17836       -0.14752        2.15943
 H          0.23752       -1.71600       -1.32280
 H          0.23752       -1.71600        1.32280
 H          1.64084       -0.63767       -1.28032
 H          1.64084       -0.63767        1.28032
 }
 basis={ default,sto-3g }
 {uks,SOGGA11,direct;wf,42,1,0}
 {ibba,bonds=1}

 Variables initialized (895), CPU time= 0.01 sec
 Commands  initialized (725), CPU time= 0.01 sec, 591 directives.
 Default parameters read. Elapsed time= 0.12 sec

 Checking input...
 Passed
1


                                         ***  PROGRAM SYSTEM MOLPRO  ***
                                       Copyright, TTI GmbH Stuttgart, 2015
                                    Version 2099.9 linked May 26 2017 16:03:21


 **********************************************************************************************************************************
 LABEL *                                                                                 
  64 bit serial version                                                                  DATE: 09-Jun-17          TIME: 03:34:00  
 **********************************************************************************************************************************

 SHA1:             b4a5b34a9e711420743f49e6833241d17c61fb3c
 **********************************************************************************************************************************
 SETTING GEOMTYP        =    XYZ

 Variable memory set to  500000000 words,  buffer space 

 ZSYMEL=NOSYM

 SETTING BASIS          =    STO-3G


 Recomputing integrals since basis changed


 Using spherical harmonics

 Library entry C      S STO-3G               selected for orbital group  1
 Library entry C      P STO-3G               selected for orbital group  1
 Library entry O      S STO-3G               selected for orbital group  2
 Library entry O      P STO-3G               selected for orbital group  2
 Library entry H      S STO-3G               selected for orbital group  3


 PROGRAM * SEWARD (Integral evaluation for generally contracted gaussian basis sets)     Author: Roland Lindh, 1990

 Geometry written to block  1 of record 700


 Point group  C1  



 ATOMIC COORDINATES

 NR  ATOM    CHARGE       X              Y              Z

   1  C       6.00   -2.895684032    0.042462146    0.000000000
   2  C       6.00   -0.003628274    0.026853008    0.000000000
   3  O       8.00    0.703715112    2.652343999    0.000000000
   4  H       1.00    2.536919528    2.721885921    0.000000000
   5  H       1.00   -3.647001345   -1.886305720    0.000000000
   6  H       1.00   -3.605540754    1.027670861   -1.675298901
   7  H       1.00   -3.605540754    1.027670861    1.675298901
   8  C       6.00    1.026177977   -1.256025366   -2.392015328
   9  C       6.00    1.026177977   -1.256025366    2.392015328
  10  H       1.00    0.337051552   -0.278772398   -4.080731285
  11  H       1.00    0.337051552   -0.278772398    4.080731285
  12  H       1.00    0.448847749   -3.242770030   -2.499729718
  13  H       1.00    0.448847749   -3.242770030    2.499729718
  14  H       1.00    3.100738214   -1.205021658   -2.419454152
  15  H       1.00    3.100738214   -1.205021658    2.419454152

 Bond lengths in Bohr (Angstrom)

 1-2  2.892097881  1-5  2.069933136  1-6  2.069096224  1-7  2.069096224  2-3  2.719106031
     ( 1.530432290)     ( 1.095361444)     ( 1.094918569)     ( 1.094918569)     ( 1.438888946)

  2- 8  2.903104402   2- 9  2.903104402   3- 4  1.834522965   8-10  2.069222119   8-12  2.071730422
       ( 1.536256691)       ( 1.536256691)       ( 0.970787746)       ( 1.094985190)       ( 1.096312526)

  8-14  2.075368508   9-11  2.069222119   9-13  2.071730422   9-15  2.075368508
       ( 1.098237719)       ( 1.094985190)       ( 1.096312526)       ( 1.098237719)

 Bond angles

  1-2-3  104.76902697   1-2-8  110.92255387   1-2-9  110.92255387   2-1-5  110.97328220

  2- 1- 6  110.22090701   2- 1- 7  110.22090701   2- 3- 4  107.25071562   2- 8-10  110.21836376

  2- 8-12  111.57747468   2- 8-14  110.77023896   2- 9-11  110.21836376   2- 9-13  111.57747468

  2- 9-15  110.77023896   3- 2- 8  109.53648747   3- 2- 9  109.53648747   5- 1- 6  108.61190457

  5- 1- 7  108.61190457   6- 1- 7  108.12870271   8- 2- 9  110.96453384  10- 8-12  108.52192632

 10- 8-14  108.08997829  11- 9-13  108.52192632  11- 9-15  108.08997829  12- 8-14  107.54424578

 13- 9-15  107.54424578

 NUCLEAR CHARGE:                   42
 NUMBER OF PRIMITIVE AOS:         105
 NUMBER OF SYMMETRY AOS:          105
 NUMBER OF CONTRACTIONS:           35   (  35A   )
 NUMBER OF CORE ORBITALS:           5   (   5A   )
 NUMBER OF VALENCE ORBITALS:       30   (  30A   )


 NUCLEAR REPULSION ENERGY  198.77359127


 Eigenvalues of metric

         1 0.207E+00 0.227E+00 0.228E+00 0.304E+00 0.354E+00 0.360E+00 0.361E+00 0.363E+00


 Contracted 2-electron integrals neglected if value below      1.0D-11
 AO integral compression algorithm  1   Integral accuracy      1.0D-11

     1.573 MB (compressed) written to integral file ( 87.8%)


 NUMBER OF SORTED TWO-ELECTRON INTEGRALS:     198765.     BUFFER LENGTH:  32768
 NUMBER OF SEGMENTS:   1  SEGMENT LENGTH:     198765      RECORD LENGTH: 524288

 Memory used in sort:       0.76 MW

 SORT1 READ      224962. AND WROTE      188577. INTEGRALS IN      1 RECORDS. CPU TIME:     0.01 SEC, REAL TIME:     0.02 SEC
 SORT2 READ      188577. AND WROTE      198765. INTEGRALS IN      6 RECORDS. CPU TIME:     0.02 SEC, REAL TIME:     0.04 SEC

 FILE SIZES:   FILE 1:    31.8 MBYTE,  FILE 4:     4.2 MBYTE,   TOTAL:     36.0 MBYTE

 OPERATOR DM      FOR CENTER  0  COORDINATES:    0.000000    0.000000    0.000000


 **********************************************************************************************************************************
 DATASETS  * FILE   NREC   LENGTH (MB)   RECORD NAMES
              1      19       31.10       500      610      700      900      950      970     1000      129      960     1100   
                                          VAR    BASINP    GEOM    SYMINP    ZMAT    AOBASIS   BASIS     P2S    ABASIS      S 
                                         1400     1410     1200     1210     1080     1600     1650     1300     1700   
                                           T        V       H0       H01     AOSYM     SMH    MOLCAS    ERIS     OPER   

 PROGRAMS   *        TOTAL       INT
 CPU TIMES  *         0.60      0.45
 REAL TIME  *         2.08 SEC
 DISK USED  *        36.55 MB      
 **********************************************************************************************************************************

 Density functional group SOGGA11=XC-SOGGA11
 Functional: XC-SOGGA11(via MFM 1.6)                                           Gradient terms: 1
 Use grid at  1800.2

 Functional: XC-SOGGA11                Factor:  1.0000

 Generated new metagrid on record  1800.2 with target accuracy 1.0D-06 and 53396 points in CPU time    1.7
 Computed new grid on record 1800.1 in CPU time    1.9
   32369 words reserved for DFT integration

 PROGRAM * UKS-SCF (Unrestricted Kohn-Sham)     Authors: W. Meyer, H.-J. Werner, P.J. Knowles, 1993

 NUMBER OF ELECTRONS:      21+   21-    SPACE SYMMETRY=1    SPIN SYMMETRY: Singlet 
 CONVERGENCE THRESHOLDS:    1.00E-05 (Density)    1.00E-06 (Energy)
 MAX. NUMBER OF ITERATIONS:       60
 INTERPOLATION TYPE:            DIIS
 INTERPOLATION STEPS:              2 (START)      1 (STEP)
 LEVEL SHIFTS:                 -0.20 (ALPHA)  -0.20 (BETA) 



 Use fine grid record 1800.2 for energy threshold  1.0D-06
 Orbital guess generated from atomic densities. Full valence occupancy:   21

 Molecular orbital dump at record        2200.2

 Initial alpha occupation  21
 Initial beta  occupation  21

 ITERATION    DDIFF          GRAD             ENERGY        2-EL.EN.            DIPOLE MOMENTS         DIIS
    1      0.000D+00      0.000D+00      -230.33792281    641.214484    0.78281   -1.08473    0.00000    0
    2      0.636D-01      0.205D-01      -230.69462075    621.360653    0.24558   -0.36263    0.00000    1
    3      0.107D-01      0.437D-02      -230.70843239    624.191335    0.32409   -0.37935    0.00000    2
    4      0.109D-02      0.438D-03      -230.70863362    624.160607    0.33171   -0.38929    0.00000    3
    5      0.542D-03      0.138D-03      -230.70866398    624.154464    0.33128   -0.38155    0.00000    4
    6      0.158D-03      0.353D-04      -230.70866632    624.151268    0.33167   -0.38150    0.00000    5
    7      0.381D-04      0.932D-05      -230.70866640    624.152579    0.33144   -0.38110    0.00000    5
    8      0.132D-04      0.538D-05      -230.70866643    624.151782    0.33147   -0.38120    0.00000    6
    9      0.173D-05      0.359D-06      -230.70866643    624.151878    0.33148   -0.38120    0.00000    6
   10      0.491D-06      0.150D-06      -230.70866643    624.151825    0.33147   -0.38120    0.00000    6

 Final alpha occupancy:  21
 Final beta  occupancy:  21

 !UKS STATE 1.1 Energy               -230.708666425324
 Nuclear energy                       198.77359127
 One-electron energy                 -707.43392222
 Two-electron energy                  312.07591242
 Density functional                   -34.12424789     XC-SOGGA11=-34.12424789
 Virial quotient                       -1.01553849
 !UKS STATE 1.1 Dipole moment           0.33147461    -0.38119891     0.00000000
 Dipole moment /Debye                   0.84246924    -0.96884753     0.00000000

 Orbital energies for positive spin:

         1.1          2.1          3.1          4.1          5.1          6.1          7.1          8.1          9.1         10.1
    -18.494403    -9.796105    -9.729330    -9.729265    -9.729027    -0.852046    -0.664958    -0.583404    -0.582228    -0.455913

        11.1         12.1         13.1         14.1         15.1         16.1         17.1         18.1         19.1         20.1
     -0.382220    -0.354506    -0.353689    -0.312588    -0.308221    -0.284816    -0.283761    -0.253522    -0.250637    -0.150083

        21.1         22.1         23.1
     -0.068032     0.255643     0.314152

 Orbital energies for negative spin:

         1.1          2.1          3.1          4.1          5.1          6.1          7.1          8.1          9.1         10.1
    -18.494403    -9.796105    -9.729330    -9.729265    -9.729027    -0.852046    -0.664958    -0.583404    -0.582228    -0.455913

        11.1         12.1         13.1         14.1         15.1         16.1         17.1         18.1         19.1         20.1
     -0.382220    -0.354506    -0.353689    -0.312588    -0.308221    -0.284816    -0.283761    -0.253522    -0.250637    -0.150083

        21.1         22.1         23.1
     -0.068032     0.255643     0.314152

 HOMO     21.1    -0.068032 =      -1.8513eV
 LUMO     22.1     0.255643 =       6.9564eV
 LUMO-HOMO         0.323675 =       8.8076eV

 EXPECTATION VALUE OF S**2:            -0.00000000

 Natural orbitals saved to record    2200.2 (Orbital set 3)

 Orbital spaces for UNO-CAS (Min. occupation: 0.020  Max. occupation: 1.980):

 Closed:       21
 Active:        0


 **********************************************************************************************************************************
 DATASETS  * FILE   NREC   LENGTH (MB)   RECORD NAMES
              1      20       32.81       500      610      700      900      950      970     1000      129      960     1100   
                                          VAR    BASINP    GEOM    SYMINP    ZMAT    AOBASIS   BASIS     P2S    ABASIS      S 
                                         1400     1410     1200     1210     1080     1600     1650     1300     1700     1800   
                                           T        V       H0       H01     AOSYM     SMH    MOLCAS    ERIS     OPER     GRID   

              2       5        3.05       700     1000      520     1800     2200   
                                         GEOM     BASIS   MCVARS    GRID      UKS  

 PROGRAMS   *        TOTAL       UKS       INT
 CPU TIMES  *         8.05      7.45      0.45
 REAL TIME  *        13.45 SEC
 DISK USED  *        36.55 MB      
 **********************************************************************************************************************************


 PROGRAM * Intrinsic Basis Bonding Analysis (IBBA)          Author: G. Knizia

 Molecular orbitals read from record     2200.2  Type=UKS/ALPHA (state 1.1)
 Fock matrix read from record            2200.2  Type=UKS/TOTAL (state 1.1)
 Orbital energies read from record       2200.2  Type=UKS/ALPHA (state 1.1)
 Density matrix read from record         2200.2  Type=UKS/CHARGE (state 1.1)

 Number of core orbitals:           5 (   5 )
 Number of closed-shell orbitals:  16 (  16 )

 Basis set MINAO-AUTO-PP generated.      Number of basis functions:   35 

 Polarized AO type:                A = (O Ot + (1-O)(1-Ot)) P12
 Orthogonalization method:         Symmetric (Loewdin)
 Localization functional:          L = sum[A,i] <i|n_A|i>^4 -> max

 Localization group 1:  21 orbitals, occupancy  2.000
 Iterative localization: IB/PM,    7 iter; Final gradient 0.16E-08

 Bond order analysis:       [THRPRINT= 0.020]

   CEN ATOM   CEN ATOM     WIBERG.BO      RENORM.BO
     1   C  -   2   C       0.989906       0.984717
     1   C  -   5   H       0.964298       0.989673
     1   C  -   6   H       0.960710       0.986712
     1   C  -   7   H       0.960710       0.986712

     2   C  -   3   O       1.002990       0.979933
     2   C  -   1   C       0.989906       0.984717
     2   C  -   8   C       0.985197       0.958353
     2   C  -   9   C       0.985197       0.958353

     3   O  -   2   C       1.002990       0.979933
     3   O  -   4   H       0.926289       0.980972
     3   O  -   9   C       0.029770       0.015423
     3   O  -   8   C       0.029770       0.015423

     4   H  -   3   O       0.926289       0.980972

     5   H  -   1   C       0.964298       0.989673

     6   H  -   1   C       0.960710       0.986712

     7   H  -   1   C       0.960710       0.986712

     8   C  -   2   C       0.985197       0.958353
     8   C  -  14   H       0.963773       0.985762
     8   C  -  12   H       0.962012       0.987140
     8   C  -  10   H       0.961573       0.986389
     8   C  -   3   O       0.029770       0.015423

     9   C  -   2   C       0.985197       0.958353
     9   C  -  15   H       0.963773       0.985762
     9   C  -  13   H       0.962012       0.987140
     9   C  -  11   H       0.961573       0.986389
     9   C  -   3   O       0.029770       0.015423

    10   H  -   8   C       0.961573       0.986389

    11   H  -   9   C       0.961573       0.986389

    12   H  -   8   C       0.962012       0.987140

    13   H  -   9   C       0.962012       0.987140

    14   H  -   8   C       0.963773       0.985762

    15   H  -   9   C       0.963773       0.985762


 Valency analysis:

   CEN ATOM   TOT.VALENCE
     1   C       3.927783
     2   C       3.973550
     3   O       2.041652
     4   H       0.944379
     5   H       0.981240
     6   H       0.979561
     7   H       0.979561
     8   C       3.930766
     9   C       3.930766
    10   H       0.980170
    11   H       0.980170
    12   H       0.980771
    13   H       0.980771
    14   H       0.982845
    15   H       0.982845

 Total charge composition:

   CEN ATOM         s          p       ELECTRONS ->P.CHARGE
     1   C       2.99993    3.41113      6.41106   -0.41106
     2   C       2.94511    2.93568      5.88080    0.11920
     3   O       3.68027    4.65798      8.33825   -0.33825
     4   H       0.76416                 0.76416    0.23584
     5   H       0.86303                 0.86303    0.13697
     6   H       0.85703                 0.85703    0.14297
     7   H       0.85703                 0.85703    0.14297
     8   C       3.00515    3.41964      6.42478   -0.42478
     9   C       3.00515    3.41964      6.42478   -0.42478
    10   H       0.85918                 0.85918    0.14082
    11   H       0.85918                 0.85918    0.14082
    12   H       0.86133                 0.86133    0.13867
    13   H       0.86133                 0.86133    0.13867
    14   H       0.86902                 0.86902    0.13098
    15   H       0.86902                 0.86902    0.13098

 Total charge composition, AO contributions:

   CEN ATOM SHL      SPHERICAL COMPONENTS
     1   C  1s       1.99207
     1   C  2s       1.00785
     1   C  2p       1.05353    1.17477    1.18283

     2   C  1s       1.99343
     2   C  2s       0.95169
     2   C  2p       1.03119    0.87635    1.02814

     3   O  1s       1.99738
     3   O  2s       1.68289
     3   O  2p       1.35639    1.34998    1.95160

     4   H  1s       0.76416

     5   H  1s       0.86303

     6   H  1s       0.85703

     7   H  1s       0.85703

     8   C  1s       1.99217
     8   C  2s       1.01297
     8   C  2p       1.15618    1.15715    1.10630

     9   C  1s       1.99217
     9   C  2s       1.01297
     9   C  2p       1.15618    1.15715    1.10630

    10   H  1s       0.85918

    11   H  1s       0.85918

    12   H  1s       0.86133

    13   H  1s       0.86133

    14   H  1s       0.86902

    15   H  1s       0.86902

 Summary of localized orbital composition:   [THRPRINT= 0.020]

   ORB  GRP  ORB.ENERGY      CENTERS/CHARGES
     1   1   -18.327120      O  3   2.000
     2   1    -9.705087      C  2   2.000
     3   1    -9.620218      C  9   2.000
     4   1    -9.620218      C  8   2.000
     5   1    -9.619107      C  1   2.000
     6   1    -0.594543      O  3   1.235   H  4   0.756
     7   1    -0.549191      O  3   1.162   C  2   0.821
     8   1    -0.466212      C  2   0.994   C  1   0.983   (other: 0.024)
     9   1    -0.466049      C  9   0.999   C  2   0.987
    10   1    -0.466049      C  8   0.999   C  2   0.987
    11   1    -0.413483      C  9   1.128   H 15   0.862
    12   1    -0.413483      C  8   1.128   H 14   0.862
    13   1    -0.413072      O  3   1.984
    14   1    -0.411829      C  8   1.136   H 12   0.853
    15   1    -0.411829      C  9   1.136   H 13   0.853
    16   1    -0.410150      C  1   1.134   H  5   0.856
    17   1    -0.408798      C  8   1.139   H 10   0.852
    18   1    -0.408798      C  9   1.139   H 11   0.852
    19   1    -0.404210      C  1   1.140   H  7   0.850
    20   1    -0.404210      C  1   1.140   H  6   0.850
    21   1    -0.085108      O  3   1.952   C  2   0.023   (other: 0.026)

 Localized orbitals saved to record      2200.2  (orbital set 4)


 **********************************************************************************************************************************
 DATASETS  * FILE   NREC   LENGTH (MB)   RECORD NAMES
              1      20       32.81       500      610      700      900      950      970     1000      129      960     1100   
                                          VAR    BASINP    GEOM    SYMINP    ZMAT    AOBASIS   BASIS     P2S    ABASIS      S 
                                         1400     1410     1200     1210     1080     1600     1650     1300     1700     1800   
                                           T        V       H0       H01     AOSYM     SMH    MOLCAS    ERIS     OPER     GRID   

              2       5        3.06       700     1000      520     1800     2200   
                                         GEOM     BASIS   MCVARS    GRID      UKS  

 PROGRAMS   *        TOTAL      IBBA       UKS       INT
 CPU TIMES  *         8.08      0.03      7.45      0.45
 REAL TIME  *        13.61 SEC
 DISK USED  *        36.55 MB      
 **********************************************************************************************************************************
 Molecular orbitals read from record     2200.2  Type=UKS/LOCAL(IBO)  
 Occupation numbers read from record     2200.2  Type=UKS/LOCAL(IBO)  
 Orbital energies read from record       2200.2  Type=UKS/LOCAL(IBO)  
 Redundancy group numbers read from rec  2200.2  Type=UKS/BETA (state 1.1)

 IBBA/STO-3G energy=      0.000000000000

        UKS-SCF 
   -230.70866643
 **********************************************************************************************************************************
 Molpro calculation terminated
