
 Primary working directories    : /local
 Secondary working directories  : /local
 Wavefunction directory         : /local/
 Main file repository           : /local/

 SHA1      : b4a5b34a9e711420743f49e6833241d17c61fb3c
 NAME      : 2099.9.b4a5b34
 ARCHNAME  : linux/x86_64_openmp
 FC        : /cm/shared/languages/GCC-6.1/bin/gfortran
 BLASLIB   : -lblas
 id        : simonbennie

 Nodes     nprocs
 node45-018    1

 Using customized tuning parameters: mindgm=1; mindgv=20; mindgc=4; mindgr=1; noblas=0; minvec=7
 default implementation of scratch files=df  

 memory,500,m
 geomtyp=xyz
 nosym
 noorient
 geometry={
 C         -1.53233        0.02247        0.00000
 C         -0.00192        0.01421        0.00000
 O          0.37239        1.40356        0.00000
 H          1.34248        1.44036        0.00000
 H         -1.92991       -0.99819        0.00000
 H         -1.90797        0.54382       -0.88653
 H         -1.90797        0.54382        0.88653
 C          0.54303       -0.66466       -1.26580
 C          0.54303       -0.66466        1.26580
 H          0.17836       -0.14752       -2.15943
 H          0.17836       -0.14752        2.15943
 H          0.23752       -1.71600       -1.32280
 H          0.23752       -1.71600        1.32280
 H          1.64084       -0.63767       -1.28032
 H          1.64084       -0.63767        1.28032
 }
 basis={ default,avdz }
 {uks,LYP88,direct;wf,42,1,0}
 {ibba,bonds=1}

 Variables initialized (895), CPU time= 0.01 sec
 Commands  initialized (725), CPU time= 0.01 sec, 591 directives.
 Default parameters read. Elapsed time= 5.28 sec

 Checking input...
 Passed
1


                                         ***  PROGRAM SYSTEM MOLPRO  ***
                                       Copyright, TTI GmbH Stuttgart, 2015
                                    Version 2099.9 linked May 26 2017 16:03:21


 **********************************************************************************************************************************
 LABEL *                                                                                 
  64 bit serial version                                                                  DATE: 12-Jun-17          TIME: 16:19:31  
 **********************************************************************************************************************************

 SHA1:             b4a5b34a9e711420743f49e6833241d17c61fb3c
 **********************************************************************************************************************************
 SETTING GEOMTYP        =    XYZ

 Variable memory set to  500000000 words,  buffer space 

 ZSYMEL=NOSYM

 SETTING BASIS          =    AVDZ


 Recomputing integrals since basis changed


 Using spherical harmonics

 Library entry C      S aug-cc-pVDZ          selected for orbital group  1
 Library entry C      P aug-cc-pVDZ          selected for orbital group  1
 Library entry C      D aug-cc-pVDZ          selected for orbital group  1
 Library entry O      S aug-cc-pVDZ          selected for orbital group  2
 Library entry O      P aug-cc-pVDZ          selected for orbital group  2
 Library entry O      D aug-cc-pVDZ          selected for orbital group  2
 Library entry H      S aug-cc-pVDZ          selected for orbital group  3
 Library entry H      P aug-cc-pVDZ          selected for orbital group  3


 PROGRAM * SEWARD (Integral evaluation for generally contracted gaussian basis sets)     Author: Roland Lindh, 1990

 Geometry written to block  1 of record 700


 Point group  C1  



 ATOMIC COORDINATES

 NR  ATOM    CHARGE       X              Y              Z

   1  C       6.00   -2.895684032    0.042462146    0.000000000
   2  C       6.00   -0.003628274    0.026853008    0.000000000
   3  O       8.00    0.703715112    2.652343999    0.000000000
   4  H       1.00    2.536919528    2.721885921    0.000000000
   5  H       1.00   -3.647001345   -1.886305720    0.000000000
   6  H       1.00   -3.605540754    1.027670861   -1.675298901
   7  H       1.00   -3.605540754    1.027670861    1.675298901
   8  C       6.00    1.026177977   -1.256025366   -2.392015328
   9  C       6.00    1.026177977   -1.256025366    2.392015328
  10  H       1.00    0.337051552   -0.278772398   -4.080731285
  11  H       1.00    0.337051552   -0.278772398    4.080731285
  12  H       1.00    0.448847749   -3.242770030   -2.499729718
  13  H       1.00    0.448847749   -3.242770030    2.499729718
  14  H       1.00    3.100738214   -1.205021658   -2.419454152
  15  H       1.00    3.100738214   -1.205021658    2.419454152

 Bond lengths in Bohr (Angstrom)

 1-2  2.892097881  1-5  2.069933136  1-6  2.069096224  1-7  2.069096224  2-3  2.719106031
     ( 1.530432290)     ( 1.095361444)     ( 1.094918569)     ( 1.094918569)     ( 1.438888946)

  2- 8  2.903104402   2- 9  2.903104402   3- 4  1.834522965   8-10  2.069222119   8-12  2.071730422
       ( 1.536256691)       ( 1.536256691)       ( 0.970787746)       ( 1.094985190)       ( 1.096312526)

  8-14  2.075368508   9-11  2.069222119   9-13  2.071730422   9-15  2.075368508
       ( 1.098237719)       ( 1.094985190)       ( 1.096312526)       ( 1.098237719)

 Bond angles

  1-2-3  104.76902697   1-2-8  110.92255387   1-2-9  110.92255387   2-1-5  110.97328220

  2- 1- 6  110.22090701   2- 1- 7  110.22090701   2- 3- 4  107.25071562   2- 8-10  110.21836376

  2- 8-12  111.57747468   2- 8-14  110.77023896   2- 9-11  110.21836376   2- 9-13  111.57747468

  2- 9-15  110.77023896   3- 2- 8  109.53648747   3- 2- 9  109.53648747   5- 1- 6  108.61190457

  5- 1- 7  108.61190457   6- 1- 7  108.12870271   8- 2- 9  110.96453384  10- 8-12  108.52192632

 10- 8-14  108.08997829  11- 9-13  108.52192632  11- 9-15  108.08997829  12- 8-14  107.54424578

 13- 9-15  107.54424578

 NUCLEAR CHARGE:                   42
 NUMBER OF PRIMITIVE AOS:         295
 NUMBER OF SYMMETRY AOS:          285
 NUMBER OF CONTRACTIONS:          205   ( 205A   )
 NUMBER OF CORE ORBITALS:           5   (   5A   )
 NUMBER OF VALENCE ORBITALS:       30   (  30A   )


 NUCLEAR REPULSION ENERGY  198.77359127


 Eigenvalues of metric

         1 0.151E-04 0.552E-04 0.579E-04 0.110E-03 0.111E-03 0.217E-03 0.237E-03 0.259E-03


 Contracted 2-electron integrals neglected if value below      1.0D-12
 AO integral compression algorithm  1   Integral accuracy      1.0D-12

     1203.503 MB (compressed) written to integral file ( 61.3%)


 NUMBER OF SORTED TWO-ELECTRON INTEGRALS:  222932170.     BUFFER LENGTH:  32768
 NUMBER OF SEGMENTS:  14  SEGMENT LENGTH:   15999503      RECORD LENGTH: 524288

 Memory used in sort:      16.56 MW

 SORT1 READ   245224724. AND WROTE   218324786. INTEGRALS IN    630 RECORDS. CPU TIME:     3.08 SEC, REAL TIME:     6.30 SEC
 SORT2 READ   218324786. AND WROTE   222932170. INTEGRALS IN   4591 RECORDS. CPU TIME:     4.38 SEC, REAL TIME:     5.96 SEC

 FILE SIZES:   FILE 1:  1235.3 MBYTE,  FILE 4:  2642.4 MBYTE,   TOTAL:   3877.7 MBYTE

 OPERATOR DM      FOR CENTER  0  COORDINATES:    0.000000    0.000000    0.000000


 **********************************************************************************************************************************
 DATASETS  * FILE   NREC   LENGTH (MB)   RECORD NAMES
              1      19     1149.90       500      610      700      900      950      970     1000      129      960     1100   
                                          VAR    BASINP    GEOM    SYMINP    ZMAT    AOBASIS   BASIS     P2S    ABASIS      S 
                                         1400     1410     1200     1210     1080     1600     1650     1300     1700   
                                           T        V       H0       H01     AOSYM     SMH    MOLCAS    ERIS     OPER   

 PROGRAMS   *        TOTAL       INT
 CPU TIMES  *        19.21     19.06
 REAL TIME  *        50.65 SEC
 DISK USED  *         3.88 GB      
 **********************************************************************************************************************************

 Density functional group LYP88=LYP
 Functional: LYP(Automatically generated (new) LYP)                            Gradient terms: 1
 Use grid at  1800.2

 Functional: LYP                       Factor:  1.0000

 Generated new metagrid on record  1800.2 with target accuracy 1.0D-06 and 53396 points in CPU time    1.6
 Computed new grid on record 1800.1 in CPU time    1.8
  167289 words reserved for DFT integration

 PROGRAM * UKS-SCF (Unrestricted Kohn-Sham)     Authors: W. Meyer, H.-J. Werner, P.J. Knowles, 1993

 NUMBER OF ELECTRONS:      21+   21-    SPACE SYMMETRY=1    SPIN SYMMETRY: Singlet 
 CONVERGENCE THRESHOLDS:    1.00E-05 (Density)    1.00E-06 (Energy)
 MAX. NUMBER OF ITERATIONS:       60
 INTERPOLATION TYPE:            DIIS
 INTERPOLATION STEPS:              2 (START)      1 (STEP)
 LEVEL SHIFTS:                 -0.20 (ALPHA)  -0.20 (BETA) 



 Use fine grid record 1800.2 for energy threshold  1.0D-06
 Orbital guess generated from atomic densities. Full valence occupancy:   35

 Molecular orbital dump at record        2200.2

 Initial alpha occupation  21
 Initial beta  occupation  21

 ITERATION    DDIFF          GRAD             ENERGY        2-EL.EN.            DIPOLE MOMENTS         DIIS
    1      0.000D+00      0.000D+00      -194.94566580    487.771112    3.31435   11.06960   -0.00000    0
    2      0.129D+01      0.140D-01      -185.40286413    704.174914   -5.42694  -19.06884    0.00000    1
    3      0.857D-01      0.281D-01      -199.69298699    638.883154    0.11245   -4.02236   -0.00000    2
    4      0.240D-01      0.111D-01      -201.28417129    611.990559   -0.49200   -3.41636   -0.00000    3
    5      0.217D-01      0.544D-02      -201.77476039    601.655249    0.04852   -1.53845   -0.00000    4
    6      0.144D-01      0.235D-02      -201.90013822    590.477584    0.36784   -0.39905   -0.00000    5
    7      0.142D-01      0.530D-03      -201.90697255    588.881019    0.17560   -0.42866   -0.00000    6
    8      0.588D-02      0.405D-03      -201.90975922    589.741275    0.27324   -0.29325    0.00000    7
    9      0.338D-02      0.366D-03      -201.91192005    589.997120    0.28669   -0.31695   -0.00000    8
   10      0.676D-02      0.185D-03      -201.91334835    590.427323    0.24457   -0.33303    0.00000    9
   11      0.322D-02      0.719D-04      -201.91364997    590.557020    0.24772   -0.32924    0.00000    8
   12      0.138D-02      0.153D-04      -201.91369555    590.534149    0.24087   -0.32211    0.00000    9
   13      0.118D-02      0.106D-04      -201.91371455    590.527741    0.23978   -0.31731    0.00000    9
   14      0.978D-03      0.562D-05      -201.91372087    590.519702    0.23701   -0.31386    0.00000    9
   15      0.585D-03      0.282D-05      -201.91372244    590.519246    0.23696   -0.31301    0.00000    9
   16      0.465D-03      0.160D-05      -201.91372292    590.514166    0.23625   -0.31269    0.00000    9
   17      0.112D-03      0.499D-06      -201.91372298    590.512342    0.23624   -0.31243    0.00000    9
   18      0.412D-04      0.272D-06      -201.91372299    590.512294    0.23624   -0.31254    0.00000    9
   19      0.141D-04      0.166D-06      -201.91372299    590.511994    0.23615   -0.31259    0.00000    9
   20      0.513D-05      0.711D-07      -201.91372299    590.511943    0.23624   -0.31260    0.00000    9
   21      0.291D-05      0.438D-07      -201.91372299    590.511990    0.23622   -0.31261    0.00000    9

 Final alpha occupancy:  21
 Final beta  occupancy:  21

 !UKS STATE 1.1 Energy               -201.913722993848
 Nuclear energy                       198.77359127
 One-electron energy                 -694.60715203
 Two-electron energy                  295.25599501
 Density functional                    -1.33615725     LYP=-1.33615725
 Virial quotient                       -0.91502155
 !UKS STATE 1.1 Dipole moment           0.23621896    -0.31261483     0.00000000
 Dipole moment /Debye                   0.60036938    -0.79453560     0.00000000

 Orbital energies for positive spin:

         1.1          2.1          3.1          4.1          5.1          6.1          7.1          8.1          9.1         10.1
    -16.663562    -8.264821    -8.216711    -8.216355    -8.211379    -0.659416    -0.456853    -0.366094    -0.363771    -0.265328

        11.1         12.1         13.1         14.1         15.1         16.1         17.1         18.1         19.1         20.1
     -0.206655    -0.181412    -0.180992    -0.136429    -0.123746    -0.103276    -0.075277    -0.074232    -0.070716    -0.050797

        21.1         22.1         23.1
     -0.006227     0.026557     0.041752

 Orbital energies for negative spin:

         1.1          2.1          3.1          4.1          5.1          6.1          7.1          8.1          9.1         10.1
    -16.663562    -8.264821    -8.216711    -8.216355    -8.211379    -0.659416    -0.456853    -0.366094    -0.363771    -0.265328

        11.1         12.1         13.1         14.1         15.1         16.1         17.1         18.1         19.1         20.1
     -0.206655    -0.181412    -0.180992    -0.136429    -0.123746    -0.103276    -0.075277    -0.074232    -0.070716    -0.050797

        21.1         22.1         23.1
     -0.006227     0.026557     0.041752

 HOMO     21.1    -0.006227 =      -0.1694eV
 LUMO     22.1     0.026557 =       0.7227eV
 LUMO-HOMO         0.032784 =       0.8921eV

 EXPECTATION VALUE OF S**2:             0.00000000

 Natural orbitals saved to record    2200.2 (Orbital set 3)

 Orbital spaces for UNO-CAS (Min. occupation: 0.020  Max. occupation: 1.980):

 Closed:       21
 Active:        0


 **********************************************************************************************************************************
 DATASETS  * FILE   NREC   LENGTH (MB)   RECORD NAMES
              1      20     1151.61       500      610      700      900      950      970     1000      129      960     1100   
                                          VAR    BASINP    GEOM    SYMINP    ZMAT    AOBASIS   BASIS     P2S    ABASIS      S 
                                         1400     1410     1200     1210     1080     1600     1650     1300     1700     1800   
                                           T        V       H0       H01     AOSYM     SMH    MOLCAS    ERIS     OPER     GRID   

              2       5        4.72       700     1000      520     1800     2200   
                                         GEOM     BASIS   MCVARS    GRID      UKS  

 PROGRAMS   *        TOTAL       UKS       INT
 CPU TIMES  *       167.35    148.14     19.06
 REAL TIME  *       202.18 SEC
 DISK USED  *         3.88 GB      
 **********************************************************************************************************************************


 PROGRAM * Intrinsic Basis Bonding Analysis (IBBA)          Author: G. Knizia

 Molecular orbitals read from record     2200.2  Type=UKS/ALPHA (state 1.1)
 Fock matrix read from record            2200.2  Type=UKS/TOTAL (state 1.1)
 Orbital energies read from record       2200.2  Type=UKS/ALPHA (state 1.1)
 Density matrix read from record         2200.2  Type=UKS/CHARGE (state 1.1)

 Number of core orbitals:           5 (   5 )
 Number of closed-shell orbitals:  16 (  16 )

 Basis set MINAO-AUTO-PP generated.      Number of basis functions:   35 

 Polarized AO type:                A = (O Ot + (1-O)(1-Ot)) P12
 Orthogonalization method:         Symmetric (Loewdin)
 Localization functional:          L = sum[A,i] <i|n_A|i>^4 -> max

 Localization group 1:  21 orbitals, occupancy  2.000
 Iterative localization: IB/PM,    7 iter; Final gradient 0.49E-08

 Bond order analysis:       [THRPRINT= 0.020]

   CEN ATOM   CEN ATOM     WIBERG.BO      RENORM.BO
     1   C  -   2   C       0.984752       0.997770
     1   C  -   5   H       0.953413       0.969731
     1   C  -   6   H       0.944953       0.951707
     1   C  -   7   H       0.944953       0.951707
     1   C  -   3   O       0.032376       0.017876
     1   C  -   4   H       0.025292       0.032472
     1   C  -  15   H       0.021765       0.023183
     1   C  -  14   H       0.021765       0.023183

     2   C  -   9   C       0.990252       0.975490
     2   C  -   8   C       0.990252       0.975490
     2   C  -   1   C       0.984752       0.997770
     2   C  -   3   O       0.963378       0.932253

     3   O  -   2   C       0.963378       0.932253
     3   O  -   4   H       0.897922       0.929736
     3   O  -   8   C       0.054198       0.029425
     3   O  -   9   C       0.054198       0.029425
     3   O  -  13   H       0.036741       0.026029
     3   O  -  12   H       0.036741       0.026029
     3   O  -   1   C       0.032376       0.017876
     3   O  -   5   H       0.021869       0.016773

     4   H  -   3   O       0.897922       0.929736
     4   H  -   1   C       0.025292       0.032472

     5   H  -   1   C       0.953413       0.969731
     5   H  -   3   O       0.021869       0.016773

     6   H  -   1   C       0.944953       0.951707
     6   H  -   9   C       0.024689       0.025755

     7   H  -   1   C       0.944953       0.951707
     7   H  -   8   C       0.024689       0.025755

     8   C  -   2   C       0.990252       0.975490
     8   C  -  14   H       0.944806       0.956599
     8   C  -  10   H       0.944049       0.947833
     8   C  -  12   H       0.943390       0.950503
     8   C  -   3   O       0.054198       0.029425
     8   C  -  11   H       0.025197       0.026305
     8   C  -   7   H       0.024689       0.025755

     9   C  -   2   C       0.990252       0.975490
     9   C  -  15   H       0.944806       0.956599
     9   C  -  11   H       0.944049       0.947833
     9   C  -  13   H       0.943390       0.950503
     9   C  -   3   O       0.054198       0.029425
     9   C  -  10   H       0.025197       0.026305
     9   C  -   6   H       0.024689       0.025755

    10   H  -   8   C       0.944049       0.947833
    10   H  -   9   C       0.025197       0.026305

    11   H  -   9   C       0.944049       0.947833
    11   H  -   8   C       0.025197       0.026305

    12   H  -   8   C       0.943390       0.950503
    12   H  -   3   O       0.036741       0.026029

    13   H  -   9   C       0.943390       0.950503
    13   H  -   3   O       0.036741       0.026029

    14   H  -   8   C       0.944806       0.956599
    14   H  -   1   C       0.021765       0.023183

    15   H  -   9   C       0.944806       0.956599
    15   H  -   1   C       0.021765       0.023183


 Valency analysis:

   CEN ATOM   TOT.VALENCE
     1   C       3.962653
     2   C       3.948465
     3   O       2.124919
     4   H       0.949742
     5   H       0.995094
     6   H       0.995120
     7   H       0.995120
     8   C       3.963582
     9   C       3.963582
    10   H       0.994881
    11   H       0.994881
    12   H       0.995386
    13   H       0.995386
    14   H       0.996283
    15   H       0.996283

 Total charge composition:

   CEN ATOM         s          p       ELECTRONS ->P.CHARGE
     1   C       2.94218    3.28097      6.22315   -0.22315
     2   C       2.86780    2.88237      5.75017    0.24983
     3   O       3.57713    4.78313      8.36026   -0.36026
     4   H       0.77582                 0.77582    0.22418
     5   H       0.92996                 0.92996    0.07004
     6   H       0.93015                 0.93015    0.06985
     7   H       0.93015                 0.93015    0.06985
     8   C       2.96393    3.28669      6.25062   -0.25062
     9   C       2.96393    3.28669      6.25062   -0.25062
    10   H       0.92845                 0.92845    0.07155
    11   H       0.92845                 0.92845    0.07155
    12   H       0.93207                 0.93207    0.06793
    13   H       0.93207                 0.93207    0.06793
    14   H       0.93904                 0.93904    0.06096
    15   H       0.93904                 0.93904    0.06096

 Total charge composition, AO contributions:

   CEN ATOM SHL      SPHERICAL COMPONENTS
     1   C  1s       1.99744
     1   C  2s       0.94474
     1   C  2p       1.02234    1.12456    1.13407

     2   C  1s       1.99811
     2   C  2s       0.86969
     2   C  2p       1.01922    0.84334    1.01980

     3   O  1s       1.99881
     3   O  2s       1.57832
     3   O  2p       1.39813    1.47736    1.90764

     4   H  1s       0.77582

     5   H  1s       0.92996

     6   H  1s       0.93015

     7   H  1s       0.93015

     8   C  1s       1.99747
     8   C  2s       0.96646
     8   C  2p       1.10570    1.11377    1.06722

     9   C  1s       1.99747
     9   C  2s       0.96646
     9   C  2p       1.10570    1.11377    1.06722

    10   H  1s       0.92845

    11   H  1s       0.92845

    12   H  1s       0.93207

    13   H  1s       0.93207

    14   H  1s       0.93904

    15   H  1s       0.93904

 Summary of localized orbital composition:   [THRPRINT= 0.020]

   ORB  GRP  ORB.ENERGY      CENTERS/CHARGES
     1   1   -16.562711      O  3   2.000
     2   1    -8.193278      C  2   2.000
     3   1    -8.131970      C  8   2.000
     4   1    -8.131970      C  9   2.000
     5   1    -8.126681      C  1   2.000
     6   1    -0.441338      O  3   1.235   C  2   0.739   (other: 0.026)
     7   1    -0.415472      O  3   1.241   H  4   0.742
     8   1    -0.286827      C  8   1.018   C  2   0.951   (other: 0.031)
     9   1    -0.286827      C  9   1.018   C  2   0.951   (other: 0.031)
    10   1    -0.285693      C  1   0.992   C  2   0.959   (other: 0.049)
    11   1    -0.213288      O  3   1.965   (other: 0.035)
    12   1    -0.201592      C  9   1.049   H 15   0.924   (other: 0.027)
    13   1    -0.201592      C  8   1.049   H 14   0.924   (other: 0.027)
    14   1    -0.200525      C  9   1.064   H 13   0.911   (other: 0.025)
    15   1    -0.200525      C  8   1.064   H 12   0.911   (other: 0.025)
    16   1    -0.196783      C  1   1.060   H  5   0.916   (other: 0.024)
    17   1    -0.195222      C  9   1.070   H 11   0.909   (other: 0.020)
    18   1    -0.195222      C  8   1.070   H 10   0.909   (other: 0.020)
    19   1    -0.192678      C  1   1.067   H  7   0.912   (other: 0.021)
    20   1    -0.192678      C  1   1.067   H  6   0.912   (other: 0.021)
    21   1    -0.041173      O  3   1.908   C  2   0.027   (other: 0.066)

 Localized orbitals saved to record      2200.2  (orbital set 4)


 **********************************************************************************************************************************
 DATASETS  * FILE   NREC   LENGTH (MB)   RECORD NAMES
              1      20     1151.61       500      610      700      900      950      970     1000      129      960     1100   
                                          VAR    BASINP    GEOM    SYMINP    ZMAT    AOBASIS   BASIS     P2S    ABASIS      S 
                                         1400     1410     1200     1210     1080     1600     1650     1300     1700     1800   
                                           T        V       H0       H01     AOSYM     SMH    MOLCAS    ERIS     OPER     GRID   

              2       5        5.06       700     1000      520     1800     2200   
                                         GEOM     BASIS   MCVARS    GRID      UKS  

 PROGRAMS   *        TOTAL      IBBA       UKS       INT
 CPU TIMES  *       167.42      0.06    148.14     19.06
 REAL TIME  *       202.48 SEC
 DISK USED  *         3.88 GB      
 **********************************************************************************************************************************
 Molecular orbitals read from record     2200.2  Type=UKS/LOCAL(IBO)  
 Occupation numbers read from record     2200.2  Type=UKS/LOCAL(IBO)  
 Orbital energies read from record       2200.2  Type=UKS/LOCAL(IBO)  
 Redundancy group numbers read from rec  2200.2  Type=UKS/BETA (state 1.1)

 IBBA/aug-cc-pVDZ energy=      0.000000000000

        UKS-SCF 
   -201.91372299
 **********************************************************************************************************************************
 Molpro calculation terminated
