
 Primary working directories    : /tmp/sb13343
 Secondary working directories  : /tmp/sb13343
 Wavefunction directory         : /panfs/panasas01/chem/sb13343/wfu/
 Main file repository           : /tmp/sb13343/

 SHA1      : b4a5b34a9e711420743f49e6833241d17c61fb3c
 NAME      : 2099.9.b4a5b34
 ARCHNAME  : linux/x86_64_openmp
 FC        : /cm/shared/languages/GCC-6.1/bin/gfortran
 BLASLIB   : -lblas
 id        : simonbennie

 Nodes     nprocs
 node33-010    1

 Using customized tuning parameters: mindgm=1; mindgv=20; mindgc=4; mindgr=1; noblas=0; minvec=7
 default implementation of scratch files=df  

 memory,500,m
 geomtyp=xyz
 nosym
 noorient
 geometry={
 C          0.00000        0.00000        0.00000
 C          0.00000        0.00000        1.53307
 O          1.40344        0.00000        1.86307
 C          1.76314        0.00000        3.22887
 H         -1.02289        0.00000       -0.39176
 H          0.51995       -0.88625       -0.37815
 H          0.51995        0.88625       -0.37815
 H          2.85677        0.00000        3.25413
 H          1.40708       -0.89217        3.76475
 H          1.40708        0.89217        3.76475
 C         -0.69252       -1.26694        2.06222
 C         -0.69252        1.26694        2.06222
 H         -0.15366       -2.16088        1.72982
 H         -0.15366        2.16088        1.72982
 H         -1.72011       -1.32515        1.68649
 H         -1.72011        1.32515        1.68649
 H         -0.74365       -1.28188        3.15638
 H         -0.74365        1.28188        3.15638
 }
 basis={ default,svp }
 {ks,PBE0,direct;wf,50,1,0}
 {ibba,bonds=1}

 Variables initialized (895), CPU time= 0.00 sec
 Commands  initialized (725), CPU time= 0.02 sec, 591 directives.
 Default parameters read. Elapsed time= 0.18 sec

 Checking input...
 Passed
1


                                         ***  PROGRAM SYSTEM MOLPRO  ***
                                       Copyright, TTI GmbH Stuttgart, 2015
                                    Version 2099.9 linked May 26 2017 16:03:21


 **********************************************************************************************************************************
 LABEL *                                                                                 
  64 bit serial version                                                                  DATE: 09-Jun-17          TIME: 01:58:21  
 **********************************************************************************************************************************

 SHA1:             b4a5b34a9e711420743f49e6833241d17c61fb3c
 **********************************************************************************************************************************
 SETTING GEOMTYP        =    XYZ

 Variable memory set to  500000000 words,  buffer space 

 ZSYMEL=NOSYM

 SETTING BASIS          =    SVP


 Recomputing integrals since basis changed


 Using spherical harmonics

 Library entry C      S def2-SVP             selected for orbital group  1
 Library entry C      P def2-SVP             selected for orbital group  1
 Library entry C      D def2-SVP             selected for orbital group  1
 Library entry O      S def2-SVP             selected for orbital group  2
 Library entry O      P def2-SVP             selected for orbital group  2
 Library entry O      D def2-SVP             selected for orbital group  2
 Library entry H      S def2-SVP             selected for orbital group  4
 Library entry H      P def2-SVP             selected for orbital group  4


 PROGRAM * SEWARD (Integral evaluation for generally contracted gaussian basis sets)     Author: Roland Lindh, 1990

 Geometry written to block  1 of record 700


 Point group  C1  



 ATOMIC COORDINATES

 NR  ATOM    CHARGE       X              Y              Z

   1  C       6.00    0.000000000    0.000000000    0.000000000
   2  C       6.00    0.000000000    0.000000000    2.897082430
   3  O       8.00    2.652117232    0.000000000    3.520692051
   4  C       6.00    3.331851719    0.000000000    6.101679992
   5  H       1.00   -1.932981956    0.000000000   -0.740319107
   6  H       1.00    0.982563098   -1.674769778   -0.714599934
   7  H       1.00    0.982563098    1.674769778   -0.714599934
   8  H       1.00    5.398512901    0.000000000    6.149414474
   9  H       1.00    2.658995835   -1.685956957    7.114346427
  10  H       1.00    2.658995835    1.685956957    7.114346427
  11  C       6.00   -1.308673136   -2.394169616    3.897031009
  12  C       6.00   -1.308673136    2.394169616    3.897031009
  13  H       1.00   -0.290375316   -4.083471388    3.268886045
  14  H       1.00   -0.290375316    4.083471388    3.268886045
  15  H       1.00   -3.250536804   -2.504170574    3.187004212
  16  H       1.00   -3.250536804    2.504170574    3.187004212
  17  H       1.00   -1.405294833   -2.422402125    5.964693745
  18  H       1.00   -1.405294833    2.422402125    5.964693745

 Bond lengths in Bohr (Angstrom)

 1-2  2.897082430  1-5  2.069901355  1-6  2.069042560  1-7  2.069042560  2-3  2.724447609
     ( 1.533070000)     ( 1.095344626)     ( 1.094890171)     ( 1.094890171)     ( 1.441715587)

  2-11  2.905954351   2-12  2.905954351   3- 4  2.668995640   4- 8  2.067212379   4- 9  2.078624355
       ( 1.537764818)       ( 1.537764818)       ( 1.412371669)       ( 1.093921681)       ( 1.099960639)

  4-10  2.078624355  11-13  2.070081404  11-15  2.070524757  11-17  2.070111596  12-14  2.070081404
       ( 1.099960639)       ( 1.095439904)       ( 1.095674516)       ( 1.095455880)       ( 1.095439904)

 12-16  2.070524757  12-18  2.070111596
       ( 1.095674516)       ( 1.095455880)

 Bond angles

  1- 2- 3  103.23196371   1- 2-11  110.12706952   1- 2-12  110.12706952   2- 1- 5  110.95650426

  2- 1- 6  110.20481748   2- 1- 7  110.20481748   2- 3- 4  117.98647004   2-11-13  110.26679927

  2-11-15  110.37287188   2-11-17  112.08316935   2-12-14  110.26679927   2-12-16  110.37287188

  2-12-18  112.08316935   3- 2-11  111.07703285   3- 2-12  111.07703285   3- 4- 8  106.07765410

  3- 4- 9  112.87219182   3- 4-10  112.87219182   5- 1- 6  108.65976572   5- 1- 7  108.65976572

  6- 1- 7  108.08288210   8- 4- 9  108.20190897   8- 4-10  108.20190897   9- 4-10  108.40564999

 11- 2-12  110.95103964  13-11-15  108.29648994  13-11-17  108.35544687  14-12-16  108.29648994

 14-12-18  108.35544687  15-11-17  107.33851825  16-12-18  107.33851825

 NUCLEAR CHARGE:                   50
 NUMBER OF PRIMITIVE AOS:         234
 NUMBER OF SYMMETRY AOS:          228
 NUMBER OF CONTRACTIONS:          144   ( 144A   )
 NUMBER OF CORE ORBITALS:           6   (   6A   )
 NUMBER OF VALENCE ORBITALS:       36   (  36A   )


 NUCLEAR REPULSION ENERGY  270.15500869


 Eigenvalues of metric

         1 0.176E-02 0.508E-02 0.513E-02 0.102E-01 0.124E-01 0.215E-01 0.221E-01 0.252E-01


 Contracted 2-electron integrals neglected if value below      1.0D-11
 AO integral compression algorithm  1   Integral accuracy      1.0D-11

     186.384 MB (compressed) written to integral file ( 41.3%)


 NUMBER OF SORTED TWO-ELECTRON INTEGRALS:   54502020.     BUFFER LENGTH:  32768
 NUMBER OF SEGMENTS:   4  SEGMENT LENGTH:   15999503      RECORD LENGTH: 524288

 Memory used in sort:      16.56 MW

 SORT1 READ    56333432. AND WROTE    45703433. INTEGRALS IN    132 RECORDS. CPU TIME:     0.71 SEC, REAL TIME:     1.32 SEC
 SORT2 READ    45703433. AND WROTE    54502020. INTEGRALS IN    711 RECORDS. CPU TIME:     1.07 SEC, REAL TIME:     1.33 SEC

 FILE SIZES:   FILE 1:   217.4 MBYTE,  FILE 4:   553.7 MBYTE,   TOTAL:    771.1 MBYTE

 OPERATOR DM      FOR CENTER  0  COORDINATES:    0.000000    0.000000    0.000000


 **********************************************************************************************************************************
 DATASETS  * FILE   NREC   LENGTH (MB)   RECORD NAMES
              1      19      194.45       500      610      700      900      950      970     1000      129      960     1100   
                                          VAR    BASINP    GEOM    SYMINP    ZMAT    AOBASIS   BASIS     P2S    ABASIS      S 
                                         1400     1410     1200     1210     1080     1600     1650     1300     1700   
                                           T        V       H0       H01     AOSYM     SMH    MOLCAS    ERIS     OPER   

 PROGRAMS   *        TOTAL       INT
 CPU TIMES  *         6.92      6.77
 REAL TIME  *         9.23 SEC
 DISK USED  *       771.70 MB      
 **********************************************************************************************************************************

 Density functional group PBE0=PBEX+PBEC
 Functional: PBEX(Automatically generated (new) PBEX)                          Gradient terms: 1
 Functional: PBEC(Automatically generated (new) PBEC)                          Gradient terms: 1
 Use grid at  1800.2


 Exact exchange will be calculated, factor:  0.2500

 Functional: PBEX                      Factor:  0.7500
 Functional: PBEC                      Factor:  1.0000

 Generated new metagrid on record  1800.2 with target accuracy 1.0D-06 and 66012 points in CPU time    1.8
 Computed new grid on record 1800.1 in CPU time    2.1
  118710 words reserved for DFT integration

 PROGRAM * RKS-SCF (Restricted closed shell Kohn-Sham)     Authors: W. Meyer, H.-J. Werner, P.J. Knowles, 1993

 NUMBER OF ELECTRONS:      25+   25-    SPACE SYMMETRY=1    SPIN SYMMETRY: Singlet 
 CONVERGENCE THRESHOLDS:    1.00E-05 (Density)    1.00E-06 (Energy)
 MAX. NUMBER OF ITERATIONS:       60
 INTERPOLATION TYPE:            DIIS
 INTERPOLATION STEPS:              2 (START)      1 (STEP)
 LEVEL SHIFTS:                  0.00 (CLOSED)  0.00 (OPEN) 



 Use fine grid record 1800.2 for energy threshold  1.0D-06
 Orbital guess generated from atomic densities. Full valence occupancy:   25

 Molecular orbital dump at record        2100.2

 Initial occupancy:  25

 ITERATION    DDIFF          GRAD             ENERGY        2-EL.EN.            DIPOLE MOMENTS         DIIS   ORB.
    1      0.000D+00      0.000D+00      -272.27678677    796.377545   -0.68700    0.00000    0.62219    0    start
    2      0.000D+00      0.721D-02      -272.24961544    766.629626   -0.01901   -0.00000   -0.06040    1    diag
    3      0.152D-01      0.792D-02      -272.44539287    782.985427   -0.39707    0.00000    0.37823    2    diag
    4      0.883D-02      0.751D-03      -272.44652923    782.229819   -0.33958    0.00000    0.32052    3    diag
    5      0.769D-03      0.304D-03      -272.44673799    782.328385   -0.37302    0.00000    0.33533    4    diag
    6      0.271D-03      0.625D-04      -272.44674605    782.372634   -0.36477    0.00000    0.33312    5    diag
    7      0.674D-04      0.266D-04      -272.44674789    782.363595   -0.36555    0.00000    0.33356    6    diag
    8      0.217D-04      0.231D-05      -272.44674790    782.366053   -0.36591    0.00000    0.33391    7    diag
    9      0.303D-05      0.546D-06      -272.44674790    782.366041   -0.36573    0.00000    0.33371    0    orth

 Final occupancy:  25

 !RKS STATE 1.1 Energy               -272.446747903550
 Nuclear energy                       270.15500869
 One-electron energy                 -903.53434468
 Two-electron energy                  391.18302061
 SCF exchange energy                  -38.34274045     Factor= 0.2500
 Density functional                   -30.25043252     PBEX=-38.14873974 PBEC= -1.63887772
 Virial quotient                       -1.01099084
 !RKS STATE 1.1 Dipole moment          -0.36572538     0.00000000     0.33371237
 Dipole moment /Debye                  -0.92952031     0.00000000     0.84815669

 Orbital energies:

         1.1          2.1          3.1          4.1          5.1          6.1          7.1          8.1          9.1         10.1
    -19.198845   -10.286971   -10.267195   -10.221727   -10.221715   -10.216112    -1.035555    -0.810760    -0.707975    -0.702470

        11.1         12.1         13.1         14.1         15.1         16.1         17.1         18.1         19.1         20.1
     -0.679445    -0.558761    -0.495805    -0.473802    -0.471081    -0.440746    -0.423186    -0.407530    -0.391051    -0.382239

        21.1         22.1         23.1         24.1         25.1         26.1         27.1
     -0.373831    -0.351867    -0.351507    -0.305996    -0.260856     0.061584     0.093370

 HOMO     25.1    -0.260856 =      -7.0983eV
 LUMO     26.1     0.061584 =       1.6758eV
 LUMO-HOMO         0.322441 =       8.7741eV


 **********************************************************************************************************************************
 DATASETS  * FILE   NREC   LENGTH (MB)   RECORD NAMES
              1      20      196.57       500      610      700      900      950      970     1000      129      960     1100   
                                          VAR    BASINP    GEOM    SYMINP    ZMAT    AOBASIS   BASIS     P2S    ABASIS      S 
                                         1400     1410     1200     1210     1080     1600     1650     1300     1700     1800   
                                           T        V       H0       H01     AOSYM     SMH    MOLCAS    ERIS     OPER     GRID   

              2       5        3.48       700     1000      520     1800     2100   
                                         GEOM     BASIS   MCVARS    GRID      RKS  

 PROGRAMS   *        TOTAL        KS       INT
 CPU TIMES  *        29.38     22.46      6.77
 REAL TIME  *        33.49 SEC
 DISK USED  *       771.70 MB      
 **********************************************************************************************************************************


 PROGRAM * Intrinsic Basis Bonding Analysis (IBBA)          Author: G. Knizia

 Molecular orbitals read from record     2100.2  Type=RKS/CANONICAL (state 1.1)
 Fock matrix read from record            2100.2  Type=RKS/TOTAL (state 1.1)
 Orbital energies read from record       2100.2  Type=RKS/CANONICAL (state 1.1)
 Density matrix read from record         2100.2  Type=RKS/CHARGE (state 1.1)

 Number of core orbitals:           6 (   6 )
 Number of closed-shell orbitals:  19 (  19 )

 Basis set MINAO-AUTO-PP generated.      Number of basis functions:   42 

 Polarized AO type:                A = (O Ot + (1-O)(1-Ot)) P12
 Orthogonalization method:         Symmetric (Loewdin)
 Localization functional:          L = sum[A,i] <i|n_A|i>^4 -> max

 Localization group 1:  25 orbitals, occupancy  2.000
 Iterative localization: IB/PM,    7 iter; Final gradient 0.16E-08

 Bond order analysis:       [THRPRINT= 0.020]

   CEN ATOM   CEN ATOM     WIBERG.BO      RENORM.BO
     1   C  -   2   C       0.996145       0.994973
     1   C  -   5   H       0.964044       0.986153
     1   C  -   7   H       0.959447       0.982009
     1   C  -   6   H       0.959447       0.982009

     2   C  -   1   C       0.996145       0.994973
     2   C  -  12   C       0.992264       0.972668
     2   C  -  11   C       0.992264       0.972668
     2   C  -   3   O       0.926819       0.936664

     3   O  -   4   C       0.988084       1.013764
     3   O  -   2   C       0.926819       0.936664
     3   O  -   9   H       0.032323       0.019129
     3   O  -  10   H       0.032323       0.019129
     3   O  -  12   C       0.025626       0.013362
     3   O  -  11   C       0.025626       0.013362

     4   C  -   3   O       0.988084       1.013764
     4   C  -   8   H       0.956424       0.978493
     4   C  -   9   H       0.950538       0.939740
     4   C  -  10   H       0.950538       0.939740

     5   H  -   1   C       0.964044       0.986153

     6   H  -   1   C       0.959447       0.982009

     7   H  -   1   C       0.959447       0.982009

     8   H  -   4   C       0.956424       0.978493

     9   H  -   4   C       0.950538       0.939740
     9   H  -   3   O       0.032323       0.019129

    10   H  -   4   C       0.950538       0.939740
    10   H  -   3   O       0.032323       0.019129

    11   C  -   2   C       0.992264       0.972668
    11   C  -  17   H       0.962300       0.981715
    11   C  -  15   H       0.960368       0.986847
    11   C  -  13   H       0.959829       0.982025
    11   C  -   3   O       0.025626       0.013362

    12   C  -   2   C       0.992264       0.972668
    12   C  -  18   H       0.962300       0.981715
    12   C  -  16   H       0.960368       0.986847
    12   C  -  14   H       0.959829       0.982025
    12   C  -   3   O       0.025626       0.013362

    13   H  -  11   C       0.959829       0.982025

    14   H  -  12   C       0.959829       0.982025

    15   H  -  11   C       0.960368       0.986847

    16   H  -  12   C       0.960368       0.986847

    17   H  -  11   C       0.962300       0.981715

    18   H  -  12   C       0.962300       0.981715


 Valency analysis:

   CEN ATOM   TOT.VALENCE
     1   C       3.937751
     2   C       3.935850
     3   O       2.097557
     4   C       3.868769
     5   H       0.983348
     6   H       0.980319
     7   H       0.980319
     8   H       0.977293
     9   H       0.987264
    10   H       0.987264
    11   C       3.937999
    12   C       3.937999
    13   H       0.980588
    14   H       0.980588
    15   H       0.981156
    16   H       0.981156
    17   H       0.983286
    18   H       0.983286

 Total charge composition:

   CEN ATOM         s          p       ELECTRONS ->P.CHARGE
     1   C       3.02680    3.37630      6.40311   -0.40311
     2   C       2.92622    2.82990      5.75611    0.24389
     3   O       3.60106    4.80070      8.40176   -0.40176
     4   C       3.01537    3.17734      6.19271   -0.19271
     5   H       0.87096                 0.87096    0.12904
     6   H       0.85971                 0.85971    0.14029
     7   H       0.85971                 0.85971    0.14029
     8   H       0.84931                 0.84931    0.15069
     9   H       0.88715                 0.88715    0.11285
    10   H       0.88715                 0.88715    0.11285
    11   C       3.02687    3.39518      6.42205   -0.42205
    12   C       3.02687    3.39518      6.42205   -0.42205
    13   H       0.86067                 0.86067    0.13933
    14   H       0.86067                 0.86067    0.13933
    15   H       0.86273                 0.86273    0.13727
    16   H       0.86273                 0.86273    0.13727
    17   H       0.87072                 0.87072    0.12928
    18   H       0.87072                 0.87072    0.12928

 Total charge composition, AO contributions:

   CEN ATOM SHL      SPHERICAL COMPONENTS
     1   C  1s       1.99094
     1   C  2s       1.03587
     1   C  2p       1.15994    1.17337    1.04300

     2   C  1s       1.99264
     2   C  2s       0.93358
     2   C  2p       0.79788    1.01602    1.01600

     3   O  1s       1.99724
     3   O  2s       1.60382
     3   O  2p       1.43661    1.91414    1.44995

     4   C  1s       1.99159
     4   C  2s       1.02378
     4   C  2p       1.15958    1.16743    0.85033

     5   H  1s       0.87096

     6   H  1s       0.85971

     7   H  1s       0.85971

     8   H  1s       0.84931

     9   H  1s       0.88715

    10   H  1s       0.88715

    11   C  1s       1.99099
    11   C  2s       1.03588
    11   C  2p       1.14543    1.09813    1.15162

    12   C  1s       1.99099
    12   C  2s       1.03588
    12   C  2p       1.14543    1.09813    1.15162

    13   H  1s       0.86067

    14   H  1s       0.86067

    15   H  1s       0.86273

    16   H  1s       0.86273

    17   H  1s       0.87072

    18   H  1s       0.87072

 Summary of localized orbital composition:   [THRPRINT= 0.020]

   ORB  GRP  ORB.ENERGY      CENTERS/CHARGES
     1   1   -19.053659      O  3   2.000
     2   1   -10.195510      C  2   2.000
     3   1   -10.156932      C  4   2.000
     4   1   -10.106664      C 12   2.000
     5   1   -10.106664      C 11   2.000
     6   1   -10.100390      C  1   2.000
     7   1    -0.774188      O  3   1.248   C  4   0.745
     8   1    -0.746305      O  3   1.272   C  2   0.704   (other: 0.024)
     9   1    -0.586563      C 11   1.007   C  2   0.977
    10   1    -0.586563      C 12   1.007   C  2   0.977
    11   1    -0.583429      C  1   0.990   C  2   0.988   (other: 0.023)
    12   1    -0.556233      O  3   1.962   (other: 0.038)
    13   1    -0.529388      C  4   1.131   H 10   0.868
    14   1    -0.529388      C  4   1.131   H  9   0.868
    15   1    -0.526703      C  4   1.149   H  8   0.842
    16   1    -0.514177      C 11   1.130   H 15   0.855
    17   1    -0.514177      C 12   1.130   H 16   0.855
    18   1    -0.512669      C 11   1.127   H 17   0.863
    19   1    -0.512669      C 12   1.127   H 18   0.863
    20   1    -0.509984      C  1   1.123   H  5   0.864
    21   1    -0.508372      C 12   1.137   H 14   0.853
    22   1    -0.508372      C 11   1.137   H 13   0.853
    23   1    -0.502872      C  1   1.137   H  6   0.852
    24   1    -0.502872      C  1   1.137   H  7   0.852
    25   1    -0.312284      O  3   1.914   (other: 0.086)

 Localized orbitals saved to record      2100.2  (orbital set 2)


 **********************************************************************************************************************************
 DATASETS  * FILE   NREC   LENGTH (MB)   RECORD NAMES
              1      20      196.57       500      610      700      900      950      970     1000      129      960     1100   
                                          VAR    BASINP    GEOM    SYMINP    ZMAT    AOBASIS   BASIS     P2S    ABASIS      S 
                                         1400     1410     1200     1210     1080     1600     1650     1300     1700     1800   
                                           T        V       H0       H01     AOSYM     SMH    MOLCAS    ERIS     OPER     GRID   

              2       5        3.65       700     1000      520     1800     2100   
                                         GEOM     BASIS   MCVARS    GRID      RKS  

 PROGRAMS   *        TOTAL      IBBA        KS       INT
 CPU TIMES  *        29.43      0.05     22.46      6.77
 REAL TIME  *        33.65 SEC
 DISK USED  *       771.70 MB      
 **********************************************************************************************************************************
 Molecular orbitals read from record     2100.2  Type=RKS/LOCAL(IBO)  
 Occupation numbers read from record     2100.2  Type=RKS/LOCAL(IBO)  
 Orbital energies read from record       2100.2  Type=RKS/LOCAL(IBO)  
 Redundancy group numbers read from rec  2100.2  Type=RKS/LOCAL(IBO)  

 IBBA/SVP energy=      0.000000000000

        KS-SCF  
   -272.44674790
 **********************************************************************************************************************************
 Molpro calculation terminated
