
 Primary working directories    : /local
 Secondary working directories  : /local
 Wavefunction directory         : /local/
 Main file repository           : /local/

 SHA1      : b4a5b34a9e711420743f49e6833241d17c61fb3c
 NAME      : 2099.9.b4a5b34
 ARCHNAME  : linux/x86_64_openmp
 FC        : /cm/shared/languages/GCC-6.1/bin/gfortran
 BLASLIB   : -lblas
 id        : simonbennie

 Nodes     nprocs
 node32-036    1

 Using customized tuning parameters: mindgm=1; mindgv=20; mindgc=4; mindgr=1; noblas=0; minvec=7
 default implementation of scratch files=df  

 memory,500,m
 geomtyp=xyz
 nosym
 noorient
 geometry={
 C         -1.53233        0.02247        0.00000
 C         -0.00192        0.01421        0.00000
 O          0.37239        1.40356        0.00000
 H          1.34248        1.44036        0.00000
 H         -1.92991       -0.99819        0.00000
 H         -1.90797        0.54382       -0.88653
 H         -1.90797        0.54382        0.88653
 C          0.54303       -0.66466       -1.26580
 C          0.54303       -0.66466        1.26580
 H          0.17836       -0.14752       -2.15943
 H          0.17836       -0.14752        2.15943
 H          0.23752       -1.71600       -1.32280
 H          0.23752       -1.71600        1.32280
 H          1.64084       -0.63767       -1.28032
 H          1.64084       -0.63767        1.28032
 }
 basis={ default,tzvp }
 {ks,HFS,direct;wf,42,1,0}
 {ibba,bonds=1}

 Variables initialized (895), CPU time= 0.01 sec
 Commands  initialized (725), CPU time= 0.01 sec, 591 directives.
 Default parameters read. Elapsed time= 0.07 sec

 Checking input...
 Passed
1


                                         ***  PROGRAM SYSTEM MOLPRO  ***
                                       Copyright, TTI GmbH Stuttgart, 2015
                                    Version 2099.9 linked May 26 2017 16:03:21


 **********************************************************************************************************************************
 LABEL *                                                                                 
  64 bit serial version                                                                  DATE: 12-Jun-17          TIME: 20:07:04  
 **********************************************************************************************************************************

 SHA1:             b4a5b34a9e711420743f49e6833241d17c61fb3c
 **********************************************************************************************************************************
 SETTING GEOMTYP        =    XYZ

 Variable memory set to  500000000 words,  buffer space 

 ZSYMEL=NOSYM

 SETTING BASIS          =    TZVP


 Recomputing integrals since basis changed


 Using spherical harmonics

 Library entry C      S def2-TZVP            selected for orbital group  1
 Library entry C      P def2-TZVP            selected for orbital group  1
 Library entry C      D def2-TZVP            selected for orbital group  1
 Library entry C      F def2-TZVP            selected for orbital group  1
 Library entry O      S def2-TZVP            selected for orbital group  2
 Library entry O      P def2-TZVP            selected for orbital group  2
 Library entry O      D def2-TZVP            selected for orbital group  2
 Library entry O      F def2-TZVP            selected for orbital group  2
 Library entry H      S def2-TZVP            selected for orbital group  3
 Library entry H      P def2-TZVP            selected for orbital group  3


 PROGRAM * SEWARD (Integral evaluation for generally contracted gaussian basis sets)     Author: Roland Lindh, 1990

 Geometry written to block  1 of record 700


 Point group  C1  



 ATOMIC COORDINATES

 NR  ATOM    CHARGE       X              Y              Z

   1  C       6.00   -2.895684032    0.042462146    0.000000000
   2  C       6.00   -0.003628274    0.026853008    0.000000000
   3  O       8.00    0.703715112    2.652343999    0.000000000
   4  H       1.00    2.536919528    2.721885921    0.000000000
   5  H       1.00   -3.647001345   -1.886305720    0.000000000
   6  H       1.00   -3.605540754    1.027670861   -1.675298901
   7  H       1.00   -3.605540754    1.027670861    1.675298901
   8  C       6.00    1.026177977   -1.256025366   -2.392015328
   9  C       6.00    1.026177977   -1.256025366    2.392015328
  10  H       1.00    0.337051552   -0.278772398   -4.080731285
  11  H       1.00    0.337051552   -0.278772398    4.080731285
  12  H       1.00    0.448847749   -3.242770030   -2.499729718
  13  H       1.00    0.448847749   -3.242770030    2.499729718
  14  H       1.00    3.100738214   -1.205021658   -2.419454152
  15  H       1.00    3.100738214   -1.205021658    2.419454152

 Bond lengths in Bohr (Angstrom)

 1-2  2.892097881  1-5  2.069933136  1-6  2.069096224  1-7  2.069096224  2-3  2.719106031
     ( 1.530432290)     ( 1.095361444)     ( 1.094918569)     ( 1.094918569)     ( 1.438888946)

  2- 8  2.903104402   2- 9  2.903104402   3- 4  1.834522965   8-10  2.069222119   8-12  2.071730422
       ( 1.536256691)       ( 1.536256691)       ( 0.970787746)       ( 1.094985190)       ( 1.096312526)

  8-14  2.075368508   9-11  2.069222119   9-13  2.071730422   9-15  2.075368508
       ( 1.098237719)       ( 1.094985190)       ( 1.096312526)       ( 1.098237719)

 Bond angles

  1-2-3  104.76902697   1-2-8  110.92255387   1-2-9  110.92255387   2-1-5  110.97328220

  2- 1- 6  110.22090701   2- 1- 7  110.22090701   2- 3- 4  107.25071562   2- 8-10  110.21836376

  2- 8-12  111.57747468   2- 8-14  110.77023896   2- 9-11  110.21836376   2- 9-13  111.57747468

  2- 9-15  110.77023896   3- 2- 8  109.53648747   3- 2- 9  109.53648747   5- 1- 6  108.61190457

  5- 1- 7  108.61190457   6- 1- 7  108.12870271   8- 2- 9  110.96453384  10- 8-12  108.52192632

 10- 8-14  108.08997829  11- 9-13  108.52192632  11- 9-15  108.08997829  12- 8-14  107.54424578

 13- 9-15  107.54424578

 NUCLEAR CHARGE:                   42
 NUMBER OF PRIMITIVE AOS:         335
 NUMBER OF SYMMETRY AOS:          310
 NUMBER OF CONTRACTIONS:          215   ( 215A   )
 NUMBER OF CORE ORBITALS:           5   (   5A   )
 NUMBER OF VALENCE ORBITALS:       30   (  30A   )


 NUCLEAR REPULSION ENERGY  198.77359127


 Eigenvalues of metric

         1 0.262E-03 0.510E-03 0.539E-03 0.594E-03 0.697E-03 0.755E-03 0.210E-02 0.239E-02


 Contracted 2-electron integrals neglected if value below      1.0D-11
 AO integral compression algorithm  1   Integral accuracy      1.0D-11

     977.797 MB (compressed) written to integral file ( 41.7%)


 NUMBER OF SORTED TWO-ELECTRON INTEGRALS:  269595810.     BUFFER LENGTH:  32768
 NUMBER OF SEGMENTS:  17  SEGMENT LENGTH:   15999762      RECORD LENGTH: 524288

 Memory used in sort:      16.56 MW

 SORT1 READ   292827432. AND WROTE   238500613. INTEGRALS IN    690 RECORDS. CPU TIME:     3.81 SEC, REAL TIME:     8.16 SEC
 SORT2 READ   238500613. AND WROTE   269595810. INTEGRALS IN   3730 RECORDS. CPU TIME:     6.42 SEC, REAL TIME:    32.46 SEC

 FILE SIZES:   FILE 1:  1009.7 MBYTE,  FILE 4:  2894.1 MBYTE,   TOTAL:   3903.8 MBYTE

 OPERATOR DM      FOR CENTER  0  COORDINATES:    0.000000    0.000000    0.000000


 **********************************************************************************************************************************
 DATASETS  * FILE   NREC   LENGTH (MB)   RECORD NAMES
              1      19      926.27       500      610      700      900      950      970     1000      129      960     1100   
                                          VAR    BASINP    GEOM    SYMINP    ZMAT    AOBASIS   BASIS     P2S    ABASIS      S 
                                         1400     1410     1200     1210     1080     1600     1650     1300     1700   
                                           T        V       H0       H01     AOSYM     SMH    MOLCAS    ERIS     OPER   

 PROGRAMS   *        TOTAL       INT
 CPU TIMES  *        27.99     27.84
 REAL TIME  *        61.15 SEC
 DISK USED  *         3.90 GB      
 **********************************************************************************************************************************

 Density functional group HFS=DIRAC
 Functional: DIRAC(Automatically generated (new) DIRAC)                        Gradient terms: 0
 Use grid at  1800.2

 Functional: DIRAC                     Factor:  1.0000

 Generated new metagrid on record  1800.2 with target accuracy 1.0D-06 and 54596 points in CPU time    1.7
 Computed new grid on record 1800.1 in CPU time    1.9
   93304 words reserved for DFT integration

 PROGRAM * RKS-SCF (Restricted closed shell Kohn-Sham)     Authors: W. Meyer, H.-J. Werner, P.J. Knowles, 1993

 NUMBER OF ELECTRONS:      21+   21-    SPACE SYMMETRY=1    SPIN SYMMETRY: Singlet 
 CONVERGENCE THRESHOLDS:    1.00E-05 (Density)    1.00E-06 (Energy)
 MAX. NUMBER OF ITERATIONS:       60
 INTERPOLATION TYPE:            DIIS
 INTERPOLATION STEPS:              2 (START)      1 (STEP)
 LEVEL SHIFTS:                  0.00 (CLOSED)  0.00 (OPEN) 



 Use fine grid record 1800.2 for energy threshold  1.0D-06
 Orbital guess generated from atomic densities. Full valence occupancy:   21

 Molecular orbital dump at record        2100.2

 Initial occupancy:  21

 ITERATION    DDIFF          GRAD             ENERGY        2-EL.EN.            DIPOLE MOMENTS         DIIS   ORB.
    1      0.000D+00      0.000D+00      -228.76107740    638.469410    0.71727   -0.75943    0.00000    0    start
    2      0.000D+00      0.870D-02      -228.09950571    585.185803   -0.60304    0.28836    0.00000    1    diag
    3      0.243D-01      0.150D-01      -229.06429820    622.250777    0.44578   -0.64330    0.00000    2    diag
    4      0.214D-01      0.185D-02      -229.07337186    619.536730    0.34441   -0.36143    0.00000    3    diag
    5      0.154D-02      0.946D-03      -229.07613626    619.694530    0.34328   -0.51413    0.00000    4    diag
    6      0.572D-03      0.266D-03      -229.07635243    619.816805    0.34907   -0.47180    0.00000    5    diag
    7      0.165D-03      0.863D-04      -229.07637399    619.820442    0.35290   -0.47151    0.00000    6    diag
    8      0.343D-04      0.107D-04      -229.07637448    619.837963    0.35142   -0.47657    0.00000    7    diag
    9      0.120D-04      0.338D-05      -229.07637454    619.838305    0.35199   -0.47513    0.00000    8    diag
   10      0.318D-05      0.465D-06      -229.07637453    619.837944    0.35199   -0.47529    0.00000    0    orth

 Final occupancy:  21

 !RKS STATE 1.1 Energy               -229.076374534083
 Nuclear energy                       198.77359127
 One-electron energy                 -708.64692709
 Two-electron energy                  309.91897211
 Density functional                   -29.12201083     DIRAC=-29.12201083
 Virial quotient                       -0.99882799
 !RKS STATE 1.1 Dipole moment           0.35199176    -0.47529219     0.00000000
 Dipole moment /Debye                   0.89461522    -1.20799312     0.00000000

 Orbital energies:

         1.1          2.1          3.1          4.1          5.1          6.1          7.1          8.1          9.1         10.1
    -18.533470    -9.769544    -9.701216    -9.701210    -9.695973    -0.877933    -0.665904    -0.575238    -0.574663    -0.467175

        11.1         12.1         13.1         14.1         15.1         16.1         17.1         18.1         19.1         20.1
     -0.395854    -0.361575    -0.359098    -0.321344    -0.307992    -0.290884    -0.275294    -0.267083    -0.260456    -0.234728

        21.1         22.1         23.1
     -0.182532     0.023404     0.070827

 HOMO     21.1    -0.182532 =      -4.9669eV
 LUMO     22.1     0.023404 =       0.6369eV
 LUMO-HOMO         0.205936 =       5.6038eV


 **********************************************************************************************************************************
 DATASETS  * FILE   NREC   LENGTH (MB)   RECORD NAMES
              1      20      928.02       500      610      700      900      950      970     1000      129      960     1100   
                                          VAR    BASINP    GEOM    SYMINP    ZMAT    AOBASIS   BASIS     P2S    ABASIS      S 
                                         1400     1410     1200     1210     1080     1600     1650     1300     1700     1800   
                                           T        V       H0       H01     AOSYM     SMH    MOLCAS    ERIS     OPER     GRID   

              2       5        3.96       700     1000      520     1800     2100   
                                         GEOM     BASIS   MCVARS    GRID      RKS  

 PROGRAMS   *        TOTAL        KS       INT
 CPU TIMES  *        61.65     33.66     27.84
 REAL TIME  *        97.59 SEC
 DISK USED  *         3.90 GB      
 **********************************************************************************************************************************


 PROGRAM * Intrinsic Basis Bonding Analysis (IBBA)          Author: G. Knizia

 Molecular orbitals read from record     2100.2  Type=RKS/CANONICAL (state 1.1)
 Fock matrix read from record            2100.2  Type=RKS/TOTAL (state 1.1)
 Orbital energies read from record       2100.2  Type=RKS/CANONICAL (state 1.1)
 Density matrix read from record         2100.2  Type=RKS/CHARGE (state 1.1)

 Number of core orbitals:           5 (   5 )
 Number of closed-shell orbitals:  16 (  16 )

 Basis set MINAO-AUTO-PP generated.      Number of basis functions:   35 

 Polarized AO type:                A = (O Ot + (1-O)(1-Ot)) P12
 Orthogonalization method:         Symmetric (Loewdin)
 Localization functional:          L = sum[A,i] <i|n_A|i>^4 -> max

 Localization group 1:  21 orbitals, occupancy  2.000
 Iterative localization: IB/PM,    7 iter; Final gradient 0.66E-08

 Bond order analysis:       [THRPRINT= 0.020]

   CEN ATOM   CEN ATOM     WIBERG.BO      RENORM.BO
     1   C  -   2   C       0.995534       0.991997
     1   C  -   5   H       0.956019       0.984803
     1   C  -   6   H       0.951015       0.978054
     1   C  -   7   H       0.951015       0.978054

     2   C  -   1   C       0.995534       0.991997
     2   C  -   9   C       0.994742       0.972634
     2   C  -   8   C       0.994742       0.972634
     2   C  -   3   O       0.939269       0.939720

     3   O  -   2   C       0.939269       0.939720
     3   O  -   4   H       0.860397       0.969776
     3   O  -   9   C       0.032327       0.016595
     3   O  -   8   C       0.032327       0.016595
     3   O  -  13   H       0.020495       0.016288
     3   O  -  12   H       0.020495       0.016288

     4   H  -   3   O       0.860397       0.969776

     5   H  -   1   C       0.956019       0.984803

     6   H  -   1   C       0.951015       0.978054

     7   H  -   1   C       0.951015       0.978054

     8   C  -   2   C       0.994742       0.972634
     8   C  -  14   H       0.955261       0.978912
     8   C  -  10   H       0.951688       0.977890
     8   C  -  12   H       0.950864       0.977385
     8   C  -   3   O       0.032327       0.016595

     9   C  -   2   C       0.994742       0.972634
     9   C  -  15   H       0.955261       0.978912
     9   C  -  11   H       0.951688       0.977890
     9   C  -  13   H       0.950864       0.977385
     9   C  -   3   O       0.032327       0.016595

    10   H  -   8   C       0.951688       0.977890

    11   H  -   9   C       0.951688       0.977890

    12   H  -   8   C       0.950864       0.977385
    12   H  -   3   O       0.020495       0.016288

    13   H  -   9   C       0.950864       0.977385
    13   H  -   3   O       0.020495       0.016288

    14   H  -   8   C       0.955261       0.978912

    15   H  -   9   C       0.955261       0.978912


 Valency analysis:

   CEN ATOM   TOT.VALENCE
     1   C       3.924927
     2   C       3.937450
     3   O       1.945335
     4   H       0.884473
     5   H       0.978719
     6   H       0.976199
     7   H       0.976199
     8   C       3.927758
     9   C       3.927758
    10   H       0.976229
    11   H       0.976229
    12   H       0.977979
    13   H       0.977979
    14   H       0.980653
    15   H       0.980653

 Total charge composition:

   CEN ATOM         s          p       ELECTRONS ->P.CHARGE
     1   C       3.03480    3.41392      6.44872   -0.44872
     2   C       2.92721    2.82572      5.75294    0.24706
     3   O       3.64193    4.90874      8.55067   -0.55067
     4   H       0.66011                 0.66011    0.33989
     5   H       0.85412                 0.85412    0.14588
     6   H       0.84572                 0.84572    0.15428
     7   H       0.84572                 0.84572    0.15428
     8   C       3.04218    3.42049      6.46267   -0.46267
     9   C       3.04218    3.42049      6.46267   -0.46267
    10   H       0.84582                 0.84582    0.15418
    11   H       0.84582                 0.84582    0.15418
    12   H       0.85160                 0.85160    0.14840
    13   H       0.85160                 0.85160    0.14840
    14   H       0.86091                 0.86091    0.13909
    15   H       0.86091                 0.86091    0.13909

 Total charge composition, AO contributions:

   CEN ATOM SHL      SPHERICAL COMPONENTS
     1   C  1s       1.99222
     1   C  2s       1.04258
     1   C  2p       1.04761    1.17673    1.18958

     2   C  1s       1.99375
     2   C  2s       0.93346
     2   C  2p       1.01110    0.80075    1.01387

     3   O  1s       1.99742
     3   O  2s       1.64451
     3   O  2p       1.47259    1.48765    1.94850

     4   H  1s       0.66011

     5   H  1s       0.85412

     6   H  1s       0.84572

     7   H  1s       0.84572

     8   C  1s       1.99231
     8   C  2s       1.04986
     8   C  2p       1.15765    1.15792    1.10491

     9   C  1s       1.99231
     9   C  2s       1.04986
     9   C  2p       1.15765    1.15792    1.10491

    10   H  1s       0.84582

    11   H  1s       0.84582

    12   H  1s       0.85160

    13   H  1s       0.85160

    14   H  1s       0.86091

    15   H  1s       0.86091

 Summary of localized orbital composition:   [THRPRINT= 0.020]

   ORB  GRP  ORB.ENERGY      CENTERS/CHARGES
     1   1   -18.388036      O  3   2.000
     2   1    -9.682620      C  2   2.000
     3   1    -9.592472      C  8   2.000
     4   1    -9.592472      C  9   2.000
     5   1    -9.586500      C  1   2.000
     6   1    -0.649076      O  3   1.344   H  4   0.645
     7   1    -0.614828      O  3   1.275   C  2   0.705
     8   1    -0.476236      C  8   1.010   C  2   0.973
     9   1    -0.476236      C  9   1.010   C  2   0.973
    10   1    -0.475790      C  1   0.992   C  2   0.981   (other: 0.027)
    11   1    -0.451932      O  3   1.979   (other: 0.021)
    12   1    -0.406912      C  9   1.143   H 13   0.840
    13   1    -0.406912      C  8   1.143   H 12   0.840
    14   1    -0.405938      C  8   1.133   H 14   0.852
    15   1    -0.405938      C  9   1.133   H 15   0.852
    16   1    -0.402723      C  1   1.138   H  5   0.846
    17   1    -0.400764      C  9   1.152   H 11   0.836
    18   1    -0.400764      C  8   1.152   H 10   0.836
    19   1    -0.396268      C  1   1.151   H  6   0.836
    20   1    -0.396268      C  1   1.151   H  7   0.836
    21   1    -0.210479      O  3   1.948   (other: 0.052)

 Localized orbitals saved to record      2100.2  (orbital set 2)


 **********************************************************************************************************************************
 DATASETS  * FILE   NREC   LENGTH (MB)   RECORD NAMES
              1      20      928.02       500      610      700      900      950      970     1000      129      960     1100   
                                          VAR    BASINP    GEOM    SYMINP    ZMAT    AOBASIS   BASIS     P2S    ABASIS      S 
                                         1400     1410     1200     1210     1080     1600     1650     1300     1700     1800   
                                           T        V       H0       H01     AOSYM     SMH    MOLCAS    ERIS     OPER     GRID   

              2       5        4.33       700     1000      520     1800     2100   
                                         GEOM     BASIS   MCVARS    GRID      RKS  

 PROGRAMS   *        TOTAL      IBBA        KS       INT
 CPU TIMES  *        61.72      0.07     33.66     27.84
 REAL TIME  *        97.76 SEC
 DISK USED  *         3.90 GB      
 **********************************************************************************************************************************
 Molecular orbitals read from record     2100.2  Type=RKS/LOCAL(IBO)  
 Occupation numbers read from record     2100.2  Type=RKS/LOCAL(IBO)  
 Orbital energies read from record       2100.2  Type=RKS/LOCAL(IBO)  
 Redundancy group numbers read from rec  2100.2  Type=RKS/LOCAL(IBO)  

 IBBA/TZVP energy=      0.000000000000

        KS-SCF  
   -229.07637453
 **********************************************************************************************************************************
 Molpro calculation terminated
