
 Primary working directories    : /tmp/sb13343
 Secondary working directories  : /tmp/sb13343
 Wavefunction directory         : /panfs/panasas01/chem/sb13343/wfu/
 Main file repository           : /tmp/sb13343/

 SHA1      : b4a5b34a9e711420743f49e6833241d17c61fb3c
 NAME      : 2099.9.b4a5b34
 ARCHNAME  : linux/x86_64_openmp
 FC        : /cm/shared/languages/GCC-6.1/bin/gfortran
 BLASLIB   : -lblas
 id        : simonbennie

 Nodes     nprocs
 node35-048    1

 Using customized tuning parameters: mindgm=1; mindgv=20; mindgc=4; mindgr=1; noblas=0; minvec=7
 default implementation of scratch files=df  

 memory,500,m
 geomtyp=xyz
 nosym
 noorient
 geometry={
 C          0.00000        0.00000        0.00000
 C          0.00000        0.00000        1.53307
 O          1.40344        0.00000        1.86307
 C          1.76314        0.00000        3.22887
 H         -1.02289        0.00000       -0.39176
 H          0.51995       -0.88625       -0.37815
 H          0.51995        0.88625       -0.37815
 H          2.85677        0.00000        3.25413
 H          1.40708       -0.89217        3.76475
 H          1.40708        0.89217        3.76475
 C         -0.69252       -1.26694        2.06222
 C         -0.69252        1.26694        2.06222
 H         -0.15366       -2.16088        1.72982
 H         -0.15366        2.16088        1.72982
 H         -1.72011       -1.32515        1.68649
 H         -1.72011        1.32515        1.68649
 H         -0.74365       -1.28188        3.15638
 H         -0.74365        1.28188        3.15638
 }
 basis={ default,svp }
 {ks,B97,direct;wf,50,1,0}
 {ibba,bonds=1}

 Variables initialized (895), CPU time= 0.00 sec
 Commands  initialized (725), CPU time= 0.02 sec, 591 directives.
 Default parameters read. Elapsed time= 0.08 sec

 Checking input...
 Passed
1


                                         ***  PROGRAM SYSTEM MOLPRO  ***
                                       Copyright, TTI GmbH Stuttgart, 2015
                                    Version 2099.9 linked May 26 2017 16:03:21


 **********************************************************************************************************************************
 LABEL *                                                                                 
  64 bit serial version                                                                  DATE: 09-Jun-17          TIME: 01:51:25  
 **********************************************************************************************************************************

 SHA1:             b4a5b34a9e711420743f49e6833241d17c61fb3c
 **********************************************************************************************************************************
 SETTING GEOMTYP        =    XYZ

 Variable memory set to  500000000 words,  buffer space 

 ZSYMEL=NOSYM

 SETTING BASIS          =    SVP


 Recomputing integrals since basis changed


 Using spherical harmonics

 Library entry C      S def2-SVP             selected for orbital group  1
 Library entry C      P def2-SVP             selected for orbital group  1
 Library entry C      D def2-SVP             selected for orbital group  1
 Library entry O      S def2-SVP             selected for orbital group  2
 Library entry O      P def2-SVP             selected for orbital group  2
 Library entry O      D def2-SVP             selected for orbital group  2
 Library entry H      S def2-SVP             selected for orbital group  4
 Library entry H      P def2-SVP             selected for orbital group  4


 PROGRAM * SEWARD (Integral evaluation for generally contracted gaussian basis sets)     Author: Roland Lindh, 1990

 Geometry written to block  1 of record 700


 Point group  C1  



 ATOMIC COORDINATES

 NR  ATOM    CHARGE       X              Y              Z

   1  C       6.00    0.000000000    0.000000000    0.000000000
   2  C       6.00    0.000000000    0.000000000    2.897082430
   3  O       8.00    2.652117232    0.000000000    3.520692051
   4  C       6.00    3.331851719    0.000000000    6.101679992
   5  H       1.00   -1.932981956    0.000000000   -0.740319107
   6  H       1.00    0.982563098   -1.674769778   -0.714599934
   7  H       1.00    0.982563098    1.674769778   -0.714599934
   8  H       1.00    5.398512901    0.000000000    6.149414474
   9  H       1.00    2.658995835   -1.685956957    7.114346427
  10  H       1.00    2.658995835    1.685956957    7.114346427
  11  C       6.00   -1.308673136   -2.394169616    3.897031009
  12  C       6.00   -1.308673136    2.394169616    3.897031009
  13  H       1.00   -0.290375316   -4.083471388    3.268886045
  14  H       1.00   -0.290375316    4.083471388    3.268886045
  15  H       1.00   -3.250536804   -2.504170574    3.187004212
  16  H       1.00   -3.250536804    2.504170574    3.187004212
  17  H       1.00   -1.405294833   -2.422402125    5.964693745
  18  H       1.00   -1.405294833    2.422402125    5.964693745

 Bond lengths in Bohr (Angstrom)

 1-2  2.897082430  1-5  2.069901355  1-6  2.069042560  1-7  2.069042560  2-3  2.724447609
     ( 1.533070000)     ( 1.095344626)     ( 1.094890171)     ( 1.094890171)     ( 1.441715587)

  2-11  2.905954351   2-12  2.905954351   3- 4  2.668995640   4- 8  2.067212379   4- 9  2.078624355
       ( 1.537764818)       ( 1.537764818)       ( 1.412371669)       ( 1.093921681)       ( 1.099960639)

  4-10  2.078624355  11-13  2.070081404  11-15  2.070524757  11-17  2.070111596  12-14  2.070081404
       ( 1.099960639)       ( 1.095439904)       ( 1.095674516)       ( 1.095455880)       ( 1.095439904)

 12-16  2.070524757  12-18  2.070111596
       ( 1.095674516)       ( 1.095455880)

 Bond angles

  1- 2- 3  103.23196371   1- 2-11  110.12706952   1- 2-12  110.12706952   2- 1- 5  110.95650426

  2- 1- 6  110.20481748   2- 1- 7  110.20481748   2- 3- 4  117.98647004   2-11-13  110.26679927

  2-11-15  110.37287188   2-11-17  112.08316935   2-12-14  110.26679927   2-12-16  110.37287188

  2-12-18  112.08316935   3- 2-11  111.07703285   3- 2-12  111.07703285   3- 4- 8  106.07765410

  3- 4- 9  112.87219182   3- 4-10  112.87219182   5- 1- 6  108.65976572   5- 1- 7  108.65976572

  6- 1- 7  108.08288210   8- 4- 9  108.20190897   8- 4-10  108.20190897   9- 4-10  108.40564999

 11- 2-12  110.95103964  13-11-15  108.29648994  13-11-17  108.35544687  14-12-16  108.29648994

 14-12-18  108.35544687  15-11-17  107.33851825  16-12-18  107.33851825

 NUCLEAR CHARGE:                   50
 NUMBER OF PRIMITIVE AOS:         234
 NUMBER OF SYMMETRY AOS:          228
 NUMBER OF CONTRACTIONS:          144   ( 144A   )
 NUMBER OF CORE ORBITALS:           6   (   6A   )
 NUMBER OF VALENCE ORBITALS:       36   (  36A   )


 NUCLEAR REPULSION ENERGY  270.15500869


 Eigenvalues of metric

         1 0.176E-02 0.508E-02 0.513E-02 0.102E-01 0.124E-01 0.215E-01 0.221E-01 0.252E-01


 Contracted 2-electron integrals neglected if value below      1.0D-11
 AO integral compression algorithm  1   Integral accuracy      1.0D-11

     186.384 MB (compressed) written to integral file ( 41.3%)


 NUMBER OF SORTED TWO-ELECTRON INTEGRALS:   54502020.     BUFFER LENGTH:  32768
 NUMBER OF SEGMENTS:   4  SEGMENT LENGTH:   15999503      RECORD LENGTH: 524288

 Memory used in sort:      16.56 MW

 SORT1 READ    56333432. AND WROTE    45703433. INTEGRALS IN    132 RECORDS. CPU TIME:     0.76 SEC, REAL TIME:     2.55 SEC
 SORT2 READ    45703433. AND WROTE    54502020. INTEGRALS IN    711 RECORDS. CPU TIME:     1.09 SEC, REAL TIME:     1.55 SEC

 FILE SIZES:   FILE 1:   217.4 MBYTE,  FILE 4:   553.7 MBYTE,   TOTAL:    771.1 MBYTE

 OPERATOR DM      FOR CENTER  0  COORDINATES:    0.000000    0.000000    0.000000


 **********************************************************************************************************************************
 DATASETS  * FILE   NREC   LENGTH (MB)   RECORD NAMES
              1      19      194.45       500      610      700      900      950      970     1000      129      960     1100   
                                          VAR    BASINP    GEOM    SYMINP    ZMAT    AOBASIS   BASIS     P2S    ABASIS      S 
                                         1400     1410     1200     1210     1080     1600     1650     1300     1700   
                                           T        V       H0       H01     AOSYM     SMH    MOLCAS    ERIS     OPER   

 PROGRAMS   *        TOTAL       INT
 CPU TIMES  *         7.41      7.26
 REAL TIME  *        14.69 SEC
 DISK USED  *       771.70 MB      
 **********************************************************************************************************************************

 Density functional group B97=B97DF
 Functional: B97DF(Automatically generated (new) B97DF)                        Gradient terms: 1
 Use grid at  1800.2


 Exact exchange will be calculated, factor:  0.1943

 Functional: B97DF                     Factor:  1.0000

 Generated new metagrid on record  1800.2 with target accuracy 1.0D-06 and 66012 points in CPU time    2.0
 Computed new grid on record 1800.1 in CPU time    2.2
  118710 words reserved for DFT integration

 PROGRAM * RKS-SCF (Restricted closed shell Kohn-Sham)     Authors: W. Meyer, H.-J. Werner, P.J. Knowles, 1993

 NUMBER OF ELECTRONS:      25+   25-    SPACE SYMMETRY=1    SPIN SYMMETRY: Singlet 
 CONVERGENCE THRESHOLDS:    1.00E-05 (Density)    1.00E-06 (Energy)
 MAX. NUMBER OF ITERATIONS:       60
 INTERPOLATION TYPE:            DIIS
 INTERPOLATION STEPS:              2 (START)      1 (STEP)
 LEVEL SHIFTS:                  0.00 (CLOSED)  0.00 (OPEN) 



 Use fine grid record 1800.2 for energy threshold  1.0D-06
 Orbital guess generated from atomic densities. Full valence occupancy:   25

 Molecular orbital dump at record        2100.2

 Initial occupancy:  25

 ITERATION    DDIFF          GRAD             ENERGY        2-EL.EN.            DIPOLE MOMENTS         DIIS   ORB.
    1      0.000D+00      0.000D+00      -272.48339816    801.898735   -0.68347    0.00000    0.62349    0    start
    2      0.000D+00      0.766D-02      -272.41933701    768.416416    0.04625   -0.00000   -0.12318    1    diag
    3      0.174D-01      0.895D-02      -272.67489936    787.431510   -0.40077    0.00000    0.38424    2    diag
    4      0.106D-01      0.899D-03      -272.67660198    786.530119   -0.32772    0.00000    0.31337    3    diag
    5      0.941D-03      0.341D-03      -272.67686211    786.617281   -0.36539    0.00000    0.32897    4    diag
    6      0.303D-03      0.749D-04      -272.67687390    786.671679   -0.35634    0.00000    0.32648    5    diag
    7      0.785D-04      0.310D-04      -272.67687639    786.662476   -0.35714    0.00000    0.32706    6    diag
    8      0.255D-04      0.301D-05      -272.67687641    786.665747   -0.35756    0.00000    0.32752    7    diag
    9      0.379D-05      0.748D-06      -272.67687641    786.665957   -0.35734    0.00000    0.32723    0    orth

 Final occupancy:  25

 !RKS STATE 1.1 Energy               -272.676876413157
 Nuclear energy                       270.15500869
 One-electron energy                 -903.52978015
 Two-electron energy                  393.33297852
 SCF exchange energy                  -38.36272678     Factor= 0.1943
 Density functional                   -32.63508347     B97DF=-32.63508347
 Virial quotient                       -1.01116658
 !RKS STATE 1.1 Dipole moment          -0.35733731     0.00000000     0.32722766
 Dipole moment /Debye                  -0.90820137     0.00000000     0.83167526

 Orbital energies:

         1.1          2.1          3.1          4.1          5.1          6.1          7.1          8.1          9.1         10.1
    -19.103416   -10.224622   -10.207895   -10.161356   -10.161345   -10.155970    -1.007858    -0.786524    -0.686355    -0.680990

        11.1         12.1         13.1         14.1         15.1         16.1         17.1         18.1         19.1         20.1
     -0.658777    -0.540498    -0.478978    -0.456998    -0.454052    -0.425555    -0.408321    -0.393538    -0.377566    -0.368870

        21.1         22.1         23.1         24.1         25.1         26.1         27.1
     -0.360881    -0.338390    -0.338232    -0.291753    -0.246338     0.056352     0.087295

 HOMO     25.1    -0.246338 =      -6.7032eV
 LUMO     26.1     0.056352 =       1.5334eV
 LUMO-HOMO         0.302690 =       8.2366eV


 **********************************************************************************************************************************
 DATASETS  * FILE   NREC   LENGTH (MB)   RECORD NAMES
              1      20      196.57       500      610      700      900      950      970     1000      129      960     1100   
                                          VAR    BASINP    GEOM    SYMINP    ZMAT    AOBASIS   BASIS     P2S    ABASIS      S 
                                         1400     1410     1200     1210     1080     1600     1650     1300     1700     1800   
                                           T        V       H0       H01     AOSYM     SMH    MOLCAS    ERIS     OPER     GRID   

              2       5        3.48       700     1000      520     1800     2100   
                                         GEOM     BASIS   MCVARS    GRID      RKS  

 PROGRAMS   *        TOTAL        KS       INT
 CPU TIMES  *        31.48     24.07      7.26
 REAL TIME  *        47.25 SEC
 DISK USED  *       771.70 MB      
 **********************************************************************************************************************************


 PROGRAM * Intrinsic Basis Bonding Analysis (IBBA)          Author: G. Knizia

 Molecular orbitals read from record     2100.2  Type=RKS/CANONICAL (state 1.1)
 Fock matrix read from record            2100.2  Type=RKS/TOTAL (state 1.1)
 Orbital energies read from record       2100.2  Type=RKS/CANONICAL (state 1.1)
 Density matrix read from record         2100.2  Type=RKS/CHARGE (state 1.1)

 Number of core orbitals:           6 (   6 )
 Number of closed-shell orbitals:  19 (  19 )

 Basis set MINAO-AUTO-PP generated.      Number of basis functions:   42 

 Polarized AO type:                A = (O Ot + (1-O)(1-Ot)) P12
 Orthogonalization method:         Symmetric (Loewdin)
 Localization functional:          L = sum[A,i] <i|n_A|i>^4 -> max

 Localization group 1:  25 orbitals, occupancy  2.000
 Iterative localization: IB/PM,    7 iter; Final gradient 0.14E-08

 Bond order analysis:       [THRPRINT= 0.020]

   CEN ATOM   CEN ATOM     WIBERG.BO      RENORM.BO
     1   C  -   2   C       0.996089       0.995274
     1   C  -   5   H       0.965389       0.985950
     1   C  -   7   H       0.960909       0.981794
     1   C  -   6   H       0.960909       0.981794

     2   C  -   1   C       0.996089       0.995274
     2   C  -  12   C       0.992069       0.972627
     2   C  -  11   C       0.992069       0.972627
     2   C  -   3   O       0.926382       0.937551

     3   O  -   4   C       0.988611       1.014673
     3   O  -   2   C       0.926382       0.937551
     3   O  -   9   H       0.033001       0.019447
     3   O  -  10   H       0.033001       0.019447
     3   O  -  12   C       0.025870       0.013482
     3   O  -  11   C       0.025870       0.013482

     4   C  -   3   O       0.988611       1.014673
     4   C  -   8   H       0.957807       0.978187
     4   C  -   9   H       0.950898       0.938294
     4   C  -  10   H       0.950898       0.938294

     5   H  -   1   C       0.965389       0.985950

     6   H  -   1   C       0.960909       0.981794

     7   H  -   1   C       0.960909       0.981794

     8   H  -   4   C       0.957807       0.978187

     9   H  -   4   C       0.950898       0.938294
     9   H  -   3   O       0.033001       0.019447

    10   H  -   4   C       0.950898       0.938294
    10   H  -   3   O       0.033001       0.019447

    11   C  -   2   C       0.992069       0.972627
    11   C  -  17   H       0.963611       0.981533
    11   C  -  15   H       0.961838       0.986594
    11   C  -  13   H       0.961280       0.981786
    11   C  -   3   O       0.025870       0.013482

    12   C  -   2   C       0.992069       0.972627
    12   C  -  18   H       0.963611       0.981533
    12   C  -  16   H       0.961838       0.986594
    12   C  -  14   H       0.961280       0.981786
    12   C  -   3   O       0.025870       0.013482

    13   H  -  11   C       0.961280       0.981786

    14   H  -  12   C       0.961280       0.981786

    15   H  -  11   C       0.961838       0.986594

    16   H  -  12   C       0.961838       0.986594

    17   H  -  11   C       0.963611       0.981533

    18   H  -  12   C       0.963611       0.981533


 Valency analysis:

   CEN ATOM   TOT.VALENCE
     1   C       3.942129
     2   C       3.934737
     3   O       2.100093
     4   C       3.871470
     5   H       0.984626
     6   H       0.981716
     7   H       0.981716
     8   H       0.978757
     9   H       0.988271
    10   H       0.988271
    11   C       3.942324
    12   C       3.942324
    13   H       0.981979
    14   H       0.981979
    15   H       0.982567
    16   H       0.982567
    17   H       0.984490
    18   H       0.984490

 Total charge composition:

   CEN ATOM         s          p       ELECTRONS ->P.CHARGE
     1   C       3.02595    3.36244      6.38838   -0.38838
     2   C       2.92722    2.82631      5.75353    0.24647
     3   O       3.60301    4.80033      8.40335   -0.40335
     4   C       3.01383    3.16429      6.17812   -0.17812
     5   H       0.87601                 0.87601    0.12399
     6   H       0.86478                 0.86478    0.13522
     7   H       0.86478                 0.86478    0.13522
     8   H       0.85425                 0.85425    0.14575
     9   H       0.89170                 0.89170    0.10830
    10   H       0.89170                 0.89170    0.10830
    11   C       3.02608    3.38144      6.40752   -0.40752
    12   C       3.02608    3.38144      6.40752   -0.40752
    13   H       0.86576                 0.86576    0.13424
    14   H       0.86576                 0.86576    0.13424
    15   H       0.86797                 0.86797    0.13203
    16   H       0.86797                 0.86797    0.13203
    17   H       0.87546                 0.87546    0.12454
    18   H       0.87546                 0.87546    0.12454

 Total charge composition, AO contributions:

   CEN ATOM SHL      SPHERICAL COMPONENTS
     1   C  1s       1.99094
     1   C  2s       1.03501
     1   C  2p       1.15422    1.16770    1.04052

     2   C  1s       1.99263
     2   C  2s       0.93459
     2   C  2p       0.79567    1.01538    1.01526

     3   O  1s       1.99724
     3   O  2s       1.60577
     3   O  2p       1.43726    1.91237    1.45070

     4   C  1s       1.99159
     4   C  2s       1.02224
     4   C  2p       1.15442    1.16278    0.84709

     5   H  1s       0.87601

     6   H  1s       0.86478

     7   H  1s       0.86478

     8   H  1s       0.85425

     9   H  1s       0.89170

    10   H  1s       0.89170

    11   C  1s       1.99099
    11   C  2s       1.03508
    11   C  2p       1.14026    1.09463    1.14656

    12   C  1s       1.99099
    12   C  2s       1.03508
    12   C  2p       1.14026    1.09463    1.14656

    13   H  1s       0.86576

    14   H  1s       0.86576

    15   H  1s       0.86797

    16   H  1s       0.86797

    17   H  1s       0.87546

    18   H  1s       0.87546

 Summary of localized orbital composition:   [THRPRINT= 0.020]

   ORB  GRP  ORB.ENERGY      CENTERS/CHARGES
     1   1   -18.958947      O  3   2.000
     2   1   -10.133596      C  2   2.000
     3   1   -10.098434      C  4   2.000
     4   1   -10.047064      C 12   2.000
     5   1   -10.047064      C 11   2.000
     6   1   -10.041029      C  1   2.000
     7   1    -0.752492      O  3   1.250   C  4   0.742
     8   1    -0.725122      O  3   1.274   C  2   0.702   (other: 0.024)
     9   1    -0.567510      C 11   1.007   C  2   0.977
    10   1    -0.567510      C 12   1.007   C  2   0.977
    11   1    -0.564376      C  1   0.990   C  2   0.988   (other: 0.023)
    12   1    -0.535825      O  3   1.962   (other: 0.038)
    13   1    -0.513303      C  4   1.127   H 10   0.872
    14   1    -0.513303      C  4   1.127   H  9   0.872
    15   1    -0.510656      C  4   1.144   H  8   0.847
    16   1    -0.498285      C 11   1.125   H 15   0.860
    17   1    -0.498285      C 12   1.125   H 16   0.860
    18   1    -0.496748      C 12   1.122   H 18   0.868
    19   1    -0.496748      C 11   1.122   H 17   0.868
    20   1    -0.494148      C  1   1.118   H  5   0.869
    21   1    -0.492613      C 12   1.132   H 14   0.858
    22   1    -0.492613      C 11   1.132   H 13   0.858
    23   1    -0.487160      C  1   1.132   H  6   0.857
    24   1    -0.487160      C  1   1.132   H  7   0.857
    25   1    -0.295085      O  3   1.912   (other: 0.088)

 Localized orbitals saved to record      2100.2  (orbital set 2)


 **********************************************************************************************************************************
 DATASETS  * FILE   NREC   LENGTH (MB)   RECORD NAMES
              1      20      196.57       500      610      700      900      950      970     1000      129      960     1100   
                                          VAR    BASINP    GEOM    SYMINP    ZMAT    AOBASIS   BASIS     P2S    ABASIS      S 
                                         1400     1410     1200     1210     1080     1600     1650     1300     1700     1800   
                                           T        V       H0       H01     AOSYM     SMH    MOLCAS    ERIS     OPER     GRID   

              2       5        3.65       700     1000      520     1800     2100   
                                         GEOM     BASIS   MCVARS    GRID      RKS  

 PROGRAMS   *        TOTAL      IBBA        KS       INT
 CPU TIMES  *        31.54      0.06     24.07      7.26
 REAL TIME  *        47.51 SEC
 DISK USED  *       771.70 MB      
 **********************************************************************************************************************************
 Molecular orbitals read from record     2100.2  Type=RKS/LOCAL(IBO)  
 Occupation numbers read from record     2100.2  Type=RKS/LOCAL(IBO)  
 Orbital energies read from record       2100.2  Type=RKS/LOCAL(IBO)  
 Redundancy group numbers read from rec  2100.2  Type=RKS/LOCAL(IBO)  

 IBBA/SVP energy=      0.000000000000

        KS-SCF  
   -272.67687641
 **********************************************************************************************************************************
 Molpro calculation terminated
