
 Primary working directories    : /tmp/sb13343
 Secondary working directories  : /tmp/sb13343
 Wavefunction directory         : /panfs/panasas01/chem/sb13343/wfu/
 Main file repository           : /tmp/sb13343/

 SHA1      : b4a5b34a9e711420743f49e6833241d17c61fb3c
 NAME      : 2099.9.b4a5b34
 ARCHNAME  : linux/x86_64_openmp
 FC        : /cm/shared/languages/GCC-6.1/bin/gfortran
 BLASLIB   : -lblas
 id        : simonbennie

 Nodes     nprocs
 node32-007    1

 Using customized tuning parameters: mindgm=1; mindgv=20; mindgc=4; mindgr=1; noblas=0; minvec=7
 default implementation of scratch files=df  

 memory,500,m
 geomtyp=xyz
 nosym
 noorient
 geometry={
 C          0.00000        0.00000        0.00000
 C          0.00000        0.00000        1.53307
 O          1.40344        0.00000        1.86307
 C          1.76314        0.00000        3.22887
 H         -1.02289        0.00000       -0.39176
 H          0.51995       -0.88625       -0.37815
 H          0.51995        0.88625       -0.37815
 H          2.85677        0.00000        3.25413
 H          1.40708       -0.89217        3.76475
 H          1.40708        0.89217        3.76475
 C         -0.69252       -1.26694        2.06222
 C         -0.69252        1.26694        2.06222
 H         -0.15366       -2.16088        1.72982
 H         -0.15366        2.16088        1.72982
 H         -1.72011       -1.32515        1.68649
 H         -1.72011        1.32515        1.68649
 H         -0.74365       -1.28188        3.15638
 H         -0.74365        1.28188        3.15638
 }
 basis={ default,sto-3g }
 {ks,VWN80,direct;wf,50,1,0}
 {ibba,bonds=1}

 Variables initialized (895), CPU time= 0.00 sec
 Commands  initialized (725), CPU time= 0.02 sec, 591 directives.
 Default parameters read. Elapsed time= 0.08 sec

 Checking input...
 Passed
1


                                         ***  PROGRAM SYSTEM MOLPRO  ***
                                       Copyright, TTI GmbH Stuttgart, 2015
                                    Version 2099.9 linked May 26 2017 16:03:21


 **********************************************************************************************************************************
 LABEL *                                                                                 
  64 bit serial version                                                                  DATE: 09-Jun-17          TIME: 01:44:29  
 **********************************************************************************************************************************

 SHA1:             b4a5b34a9e711420743f49e6833241d17c61fb3c
 **********************************************************************************************************************************
 SETTING GEOMTYP        =    XYZ

 Variable memory set to  500000000 words,  buffer space 

 ZSYMEL=NOSYM

 SETTING BASIS          =    STO-3G


 Recomputing integrals since basis changed


 Using spherical harmonics

 Library entry C      S STO-3G               selected for orbital group  1
 Library entry C      P STO-3G               selected for orbital group  1
 Library entry O      S STO-3G               selected for orbital group  2
 Library entry O      P STO-3G               selected for orbital group  2
 Library entry H      S STO-3G               selected for orbital group  4


 PROGRAM * SEWARD (Integral evaluation for generally contracted gaussian basis sets)     Author: Roland Lindh, 1990

 Geometry written to block  1 of record 700


 Point group  C1  



 ATOMIC COORDINATES

 NR  ATOM    CHARGE       X              Y              Z

   1  C       6.00    0.000000000    0.000000000    0.000000000
   2  C       6.00    0.000000000    0.000000000    2.897082430
   3  O       8.00    2.652117232    0.000000000    3.520692051
   4  C       6.00    3.331851719    0.000000000    6.101679992
   5  H       1.00   -1.932981956    0.000000000   -0.740319107
   6  H       1.00    0.982563098   -1.674769778   -0.714599934
   7  H       1.00    0.982563098    1.674769778   -0.714599934
   8  H       1.00    5.398512901    0.000000000    6.149414474
   9  H       1.00    2.658995835   -1.685956957    7.114346427
  10  H       1.00    2.658995835    1.685956957    7.114346427
  11  C       6.00   -1.308673136   -2.394169616    3.897031009
  12  C       6.00   -1.308673136    2.394169616    3.897031009
  13  H       1.00   -0.290375316   -4.083471388    3.268886045
  14  H       1.00   -0.290375316    4.083471388    3.268886045
  15  H       1.00   -3.250536804   -2.504170574    3.187004212
  16  H       1.00   -3.250536804    2.504170574    3.187004212
  17  H       1.00   -1.405294833   -2.422402125    5.964693745
  18  H       1.00   -1.405294833    2.422402125    5.964693745

 Bond lengths in Bohr (Angstrom)

 1-2  2.897082430  1-5  2.069901355  1-6  2.069042560  1-7  2.069042560  2-3  2.724447609
     ( 1.533070000)     ( 1.095344626)     ( 1.094890171)     ( 1.094890171)     ( 1.441715587)

  2-11  2.905954351   2-12  2.905954351   3- 4  2.668995640   4- 8  2.067212379   4- 9  2.078624355
       ( 1.537764818)       ( 1.537764818)       ( 1.412371669)       ( 1.093921681)       ( 1.099960639)

  4-10  2.078624355  11-13  2.070081404  11-15  2.070524757  11-17  2.070111596  12-14  2.070081404
       ( 1.099960639)       ( 1.095439904)       ( 1.095674516)       ( 1.095455880)       ( 1.095439904)

 12-16  2.070524757  12-18  2.070111596
       ( 1.095674516)       ( 1.095455880)

 Bond angles

  1- 2- 3  103.23196371   1- 2-11  110.12706952   1- 2-12  110.12706952   2- 1- 5  110.95650426

  2- 1- 6  110.20481748   2- 1- 7  110.20481748   2- 3- 4  117.98647004   2-11-13  110.26679927

  2-11-15  110.37287188   2-11-17  112.08316935   2-12-14  110.26679927   2-12-16  110.37287188

  2-12-18  112.08316935   3- 2-11  111.07703285   3- 2-12  111.07703285   3- 4- 8  106.07765410

  3- 4- 9  112.87219182   3- 4-10  112.87219182   5- 1- 6  108.65976572   5- 1- 7  108.65976572

  6- 1- 7  108.08288210   8- 4- 9  108.20190897   8- 4-10  108.20190897   9- 4-10  108.40564999

 11- 2-12  110.95103964  13-11-15  108.29648994  13-11-17  108.35544687  14-12-16  108.29648994

 14-12-18  108.35544687  15-11-17  107.33851825  16-12-18  107.33851825

 NUCLEAR CHARGE:                   50
 NUMBER OF PRIMITIVE AOS:         126
 NUMBER OF SYMMETRY AOS:          126
 NUMBER OF CONTRACTIONS:           42   (  42A   )
 NUMBER OF CORE ORBITALS:           6   (   6A   )
 NUMBER OF VALENCE ORBITALS:       36   (  36A   )


 NUCLEAR REPULSION ENERGY  270.15500869


 Eigenvalues of metric

         1 0.207E+00 0.226E+00 0.228E+00 0.234E+00 0.307E+00 0.355E+00 0.359E+00 0.362E+00


 Contracted 2-electron integrals neglected if value below      1.0D-11
 AO integral compression algorithm  1   Integral accuracy      1.0D-11

     2.884 MB (compressed) written to integral file ( 84.3%)


 NUMBER OF SORTED TWO-ELECTRON INTEGRALS:     408156.     BUFFER LENGTH:  32768
 NUMBER OF SEGMENTS:   1  SEGMENT LENGTH:     408156      RECORD LENGTH: 524288

 Memory used in sort:       0.97 MW

 SORT1 READ      453477. AND WROTE      382834. INTEGRALS IN      2 RECORDS. CPU TIME:     0.02 SEC, REAL TIME:     0.02 SEC
 SORT2 READ      382834. AND WROTE      408156. INTEGRALS IN     11 RECORDS. CPU TIME:     0.03 SEC, REAL TIME:     0.04 SEC

 FILE SIZES:   FILE 1:    33.2 MBYTE,  FILE 4:     8.4 MBYTE,   TOTAL:     41.6 MBYTE

 OPERATOR DM      FOR CENTER  0  COORDINATES:    0.000000    0.000000    0.000000


 **********************************************************************************************************************************
 DATASETS  * FILE   NREC   LENGTH (MB)   RECORD NAMES
              1      19       31.98       500      610      700      900      950      970     1000      129      960     1100   
                                          VAR    BASINP    GEOM    SYMINP    ZMAT    AOBASIS   BASIS     P2S    ABASIS      S 
                                         1400     1410     1200     1210     1080     1600     1650     1300     1700   
                                           T        V       H0       H01     AOSYM     SMH    MOLCAS    ERIS     OPER   

 PROGRAMS   *        TOTAL       INT
 CPU TIMES  *         0.99      0.84
 REAL TIME  *         1.41 SEC
 DISK USED  *        42.19 MB      
 **********************************************************************************************************************************

 Density functional group VWN80=VWN5
 Functional: VWN5(Automatically generated (new) VWN5)                          Gradient terms: 0
 Use grid at  1800.2

 Functional: VWN5                      Factor:  1.0000

 Generated new metagrid on record  1800.2 with target accuracy 1.0D-06 and 66012 points in CPU time    2.0
 Computed new grid on record 1800.1 in CPU time    2.3
   22104 words reserved for DFT integration

 PROGRAM * RKS-SCF (Restricted closed shell Kohn-Sham)     Authors: W. Meyer, H.-J. Werner, P.J. Knowles, 1993

 NUMBER OF ELECTRONS:      25+   25-    SPACE SYMMETRY=1    SPIN SYMMETRY: Singlet 
 CONVERGENCE THRESHOLDS:    1.00E-05 (Density)    1.00E-06 (Energy)
 MAX. NUMBER OF ITERATIONS:       60
 INTERPOLATION TYPE:            DIIS
 INTERPOLATION STEPS:              2 (START)      1 (STEP)
 LEVEL SHIFTS:                  0.00 (CLOSED)  0.00 (OPEN) 



 Use fine grid record 1800.2 for energy threshold  1.0D-06
 Orbital guess generated from atomic densities. Full valence occupancy:   25

 Molecular orbital dump at record        2100.2

 Initial occupancy:  25

 ITERATION    DDIFF          GRAD             ENERGY        2-EL.EN.            DIPOLE MOMENTS         DIIS   ORB.
    1      0.000D+00      0.000D+00      -232.53875370    803.718062    0.06275    0.00000    0.09592    0    start
    2      0.000D+00      0.169D-01      -232.45773092    782.639499   -0.21432   -0.00000   -0.49303    1    diag
    3      0.580D-01      0.213D-01      -232.67852990    793.898966    0.03603    0.00000   -0.11298    2    diag
    4      0.328D-01      0.133D-02      -232.67904591    794.294503   -0.06427    0.00000   -0.08966    3    diag
    5      0.337D-02      0.886D-03      -232.67941795    794.030088   -0.01298    0.00000   -0.12948    4    diag
    6      0.145D-02      0.168D-03      -232.67942958    794.048775   -0.01882    0.00000   -0.11813    5    diag
    7      0.290D-03      0.511D-04      -232.67943068    794.044479   -0.01937    0.00000   -0.11777    6    diag
    8      0.763D-04      0.705D-05      -232.67943071    794.044126   -0.01916    0.00000   -0.11840    7    diag
    9      0.140D-04      0.146D-05      -232.67943071    794.043897   -0.01911    0.00000   -0.11839    8    diag
   10      0.237D-05      0.326D-06      -232.67943071    794.043921   -0.01912    0.00000   -0.11838    0    orth

 Final occupancy:  25

 !RKS STATE 1.1 Energy               -232.679430712232
 Nuclear energy                       270.15500869
 One-electron energy                 -896.70649444
 Two-electron energy                  397.02196045
 Density functional                    -3.14990541     VWN5=-3.14990541
 Virial quotient                       -0.89401870
 !RKS STATE 1.1 Dipole moment          -0.01911684     0.00000000    -0.11838069
 Dipole moment /Debye                  -0.04858699     0.00000000    -0.30087400

 Orbital energies:

         1.1          2.1          3.1          4.1          5.1          6.1          7.1          8.1          9.1         10.1
    -15.851638    -7.754425    -7.749353    -7.741875    -7.735161    -7.733488    -0.353602    -0.204950    -0.126547    -0.122219

        11.1         12.1         13.1         14.1         15.1         16.1         17.1         18.1         19.1         20.1
     -0.083466     0.030158     0.047609     0.069365     0.072615     0.097498     0.118840     0.140658     0.149589     0.164061

        21.1         22.1         23.1         24.1         25.1         26.1         27.1
      0.177059     0.200845     0.211162     0.407173     0.469235     0.729306     0.794909

 HOMO     25.1     0.469235 =      12.7685eV
 LUMO     26.1     0.729306 =      19.8454eV
 LUMO-HOMO         0.260071 =       7.0769eV


 **********************************************************************************************************************************
 DATASETS  * FILE   NREC   LENGTH (MB)   RECORD NAMES
              1      20       34.09       500      610      700      900      950      970     1000      129      960     1100   
                                          VAR    BASINP    GEOM    SYMINP    ZMAT    AOBASIS   BASIS     P2S    ABASIS      S 
                                         1400     1410     1200     1210     1080     1600     1650     1300     1700     1800   
                                           T        V       H0       H01     AOSYM     SMH    MOLCAS    ERIS     OPER     GRID   

              2       5        3.09       700     1000      520     1800     2100   
                                         GEOM     BASIS   MCVARS    GRID      RKS  

 PROGRAMS   *        TOTAL        KS       INT
 CPU TIMES  *         6.44      5.45      0.84
 REAL TIME  *         7.24 SEC
 DISK USED  *        42.19 MB      
 **********************************************************************************************************************************


 PROGRAM * Intrinsic Basis Bonding Analysis (IBBA)          Author: G. Knizia

 Molecular orbitals read from record     2100.2  Type=RKS/CANONICAL (state 1.1)
 Fock matrix read from record            2100.2  Type=RKS/TOTAL (state 1.1)
 Orbital energies read from record       2100.2  Type=RKS/CANONICAL (state 1.1)
 Density matrix read from record         2100.2  Type=RKS/CHARGE (state 1.1)

 Number of core orbitals:           6 (   6 )
 Number of closed-shell orbitals:  19 (  19 )

 Basis set MINAO-AUTO-PP generated.      Number of basis functions:   42 

 Polarized AO type:                A = (O Ot + (1-O)(1-Ot)) P12
 Orthogonalization method:         Symmetric (Loewdin)
 Localization functional:          L = sum[A,i] <i|n_A|i>^4 -> max

 Localization group 1:  25 orbitals, occupancy  2.000
 Iterative localization: IB/PM,    7 iter; Final gradient 0.45E-08

 Bond order analysis:       [THRPRINT= 0.020]

   CEN ATOM   CEN ATOM     WIBERG.BO      RENORM.BO
     1   C  -   2   C       0.973545       0.976698
     1   C  -   5   H       0.970337       0.983744
     1   C  -   6   H       0.969163       0.981892
     1   C  -   7   H       0.969163       0.981892

     2   C  -   3   O       1.024934       0.982539
     2   C  -   1   C       0.973545       0.976698
     2   C  -  11   C       0.966312       0.943624
     2   C  -  12   C       0.966312       0.943624

     3   O  -   4   C       1.101057       1.046479
     3   O  -   2   C       1.024934       0.982539
     3   O  -  10   H       0.054951       0.030881
     3   O  -   9   H       0.054951       0.030881
     3   O  -  12   C       0.039286       0.020982
     3   O  -  11   C       0.039286       0.020982
     3   O  -   8   H       0.020002       0.011912

     4   C  -   3   O       1.101057       1.046479
     4   C  -   8   H       0.952645       0.951960
     4   C  -   9   H       0.933496       0.896572
     4   C  -  10   H       0.933496       0.896572

     5   H  -   1   C       0.970337       0.983744

     6   H  -   1   C       0.969163       0.981892

     7   H  -   1   C       0.969163       0.981892

     8   H  -   4   C       0.952645       0.951960
     8   H  -   3   O       0.020002       0.011912

     9   H  -   4   C       0.933496       0.896572
     9   H  -   3   O       0.054951       0.030881

    10   H  -   4   C       0.933496       0.896572
    10   H  -   3   O       0.054951       0.030881

    11   C  -  13   H       0.968808       0.981121
    11   C  -  15   H       0.967900       0.983034
    11   C  -  17   H       0.966662       0.978497
    11   C  -   2   C       0.966312       0.943624
    11   C  -   3   O       0.039286       0.020982

    12   C  -  14   H       0.968808       0.981121
    12   C  -  16   H       0.967900       0.983034
    12   C  -  18   H       0.966662       0.978497
    12   C  -   2   C       0.966312       0.943624
    12   C  -   3   O       0.039286       0.020982

    13   H  -  11   C       0.968808       0.981121

    14   H  -  12   C       0.968808       0.981121

    15   H  -  11   C       0.967900       0.983034

    16   H  -  12   C       0.967900       0.983034

    17   H  -  11   C       0.966662       0.978497

    18   H  -  12   C       0.966662       0.978497


 Valency analysis:

   CEN ATOM   TOT.VALENCE
     1   C       3.952806
     2   C       3.977500
     3   O       2.410167
     4   C       3.947771
     5   H       0.996103
     6   H       0.996040
     7   H       0.996040
     8   H       0.996911
     9   H       0.999465
    10   H       0.999465
    11   C       3.950612
    12   C       3.950612
    13   H       0.996475
    14   H       0.996475
    15   H       0.995970
    16   H       0.995970
    17   H       0.996560
    18   H       0.996560

 Total charge composition:

   CEN ATOM         s          p       ELECTRONS ->P.CHARGE
     1   C       2.88893    3.31335      6.20228   -0.20228
     2   C       2.87986    3.06174      5.94160    0.05840
     3   O       3.56192    4.34811      7.91004    0.08996
     4   C       2.90680    3.25958      6.16638   -0.16638
     5   H       0.93758                 0.93758    0.06242
     6   H       0.93707                 0.93707    0.06293
     7   H       0.93707                 0.93707    0.06293
     8   H       0.94442                 0.94442    0.05558
     9   H       0.97687                 0.97687    0.02313
    10   H       0.97687                 0.97687    0.02313
    11   C       2.88775    3.32867      6.21641   -0.21641
    12   C       2.88775    3.32867      6.21641   -0.21641
    13   H       0.94063                 0.94063    0.05937
    14   H       0.94063                 0.94063    0.05937
    15   H       0.93651                 0.93651    0.06349
    16   H       0.93651                 0.93651    0.06349
    17   H       0.94135                 0.94135    0.05865
    18   H       0.94135                 0.94135    0.05865

 Total charge composition, AO contributions:

   CEN ATOM SHL      SPHERICAL COMPONENTS
     1   C  1s       1.99810
     1   C  2s       0.89082
     1   C  2p       1.12307    1.12288    1.06740

     2   C  1s       1.99844
     2   C  2s       0.88142
     2   C  2p       0.95504    1.05547    1.05123

     3   O  1s       1.99895
     3   O  2s       1.56298
     3   O  2p       1.23974    1.83444    1.27393

     4   C  1s       1.99821
     4   C  2s       0.90859
     4   C  2p       1.13242    1.14521    0.98195

     5   H  1s       0.93758

     6   H  1s       0.93707

     7   H  1s       0.93707

     8   H  1s       0.94442

     9   H  1s       0.97687

    10   H  1s       0.97687

    11   C  1s       1.99813
    11   C  2s       0.88961
    11   C  2p       1.11688    1.09418    1.11760

    12   C  1s       1.99813
    12   C  2s       0.88961
    12   C  2p       1.11688    1.09418    1.11760

    13   H  1s       0.94063

    14   H  1s       0.94063

    15   H  1s       0.93651

    16   H  1s       0.93651

    17   H  1s       0.94135

    18   H  1s       0.94135

 Summary of localized orbital composition:   [THRPRINT= 0.020]

   ORB  GRP  ORB.ENERGY      CENTERS/CHARGES
     1   1   -15.752837      O  3   2.000
     2   1    -7.678242      C  2   2.000
     3   1    -7.669312      C  4   2.000
     4   1    -7.658794      C  1   2.000
     5   1    -7.651829      C 11   2.000
     6   1    -7.651829      C 12   2.000
     7   1    -0.105412      O  3   1.062   C  4   0.927
     8   1    -0.077505      O  3   1.057   C  2   0.910   (other: 0.033)
     9   1     0.003525      C  1   0.992   C  2   0.978   (other: 0.030)
    10   1     0.009641      C 12   1.004   C  2   0.975   (other: 0.021)
    11   1     0.009641      C 11   1.004   C  2   0.975   (other: 0.021)
    12   1     0.032860      C  4   1.063   H  8   0.926
    13   1     0.036281      C  1   1.062   H  6   0.928
    14   1     0.036281      C  1   1.062   H  7   0.928
    15   1     0.036307      C  1   1.061   H  5   0.929
    16   1     0.038835      C 12   1.058   H 14   0.931
    17   1     0.038835      C 11   1.058   H 13   0.931
    18   1     0.039053      C 11   1.058   H 17   0.931
    19   1     0.039053      C 12   1.058   H 18   0.931
    20   1     0.040337      C  4   1.054   H  9   0.943
    21   1     0.040337      C  4   1.054   H 10   0.943
    22   1     0.040694      C 11   1.061   H 15   0.927
    23   1     0.040694      C 12   1.061   H 16   0.927
    24   1     0.227496      O  3   1.940   (other: 0.060)
    25   1     0.435035      O  3   1.834   C  4   0.042   C  2   0.035   H  9   0.026   H 10   0.026   (other: 0.037)

 Localized orbitals saved to record      2100.2  (orbital set 2)


 **********************************************************************************************************************************
 DATASETS  * FILE   NREC   LENGTH (MB)   RECORD NAMES
              1      20       34.09       500      610      700      900      950      970     1000      129      960     1100   
                                          VAR    BASINP    GEOM    SYMINP    ZMAT    AOBASIS   BASIS     P2S    ABASIS      S 
                                         1400     1410     1200     1210     1080     1600     1650     1300     1700     1800   
                                           T        V       H0       H01     AOSYM     SMH    MOLCAS    ERIS     OPER     GRID   

              2       5        3.11       700     1000      520     1800     2100   
                                         GEOM     BASIS   MCVARS    GRID      RKS  

 PROGRAMS   *        TOTAL      IBBA        KS       INT
 CPU TIMES  *         6.48      0.04      5.45      0.84
 REAL TIME  *         7.45 SEC
 DISK USED  *        42.19 MB      
 **********************************************************************************************************************************
 Molecular orbitals read from record     2100.2  Type=RKS/LOCAL(IBO)  
 Occupation numbers read from record     2100.2  Type=RKS/LOCAL(IBO)  
 Orbital energies read from record       2100.2  Type=RKS/LOCAL(IBO)  
 Redundancy group numbers read from rec  2100.2  Type=RKS/LOCAL(IBO)  

 IBBA/STO-3G energy=      0.000000000000

        KS-SCF  
   -232.67943071
 **********************************************************************************************************************************
 Molpro calculation terminated
