
 Primary working directories    : /tmp/sb13343
 Secondary working directories  : /tmp/sb13343
 Wavefunction directory         : /panfs/panasas01/chem/sb13343/wfu/
 Main file repository           : /tmp/sb13343/

 SHA1      : b4a5b34a9e711420743f49e6833241d17c61fb3c
 NAME      : 2099.9.b4a5b34
 ARCHNAME  : linux/x86_64_openmp
 FC        : /cm/shared/languages/GCC-6.1/bin/gfortran
 BLASLIB   : -lblas
 id        : simonbennie

 Nodes     nprocs
 node32-002    1

 Using customized tuning parameters: mindgm=1; mindgv=20; mindgc=4; mindgr=1; noblas=0; minvec=7
 default implementation of scratch files=df  

 memory,500,m
 geomtyp=xyz
 nosym
 noorient
 geometry={
 C         -1.53233        0.02247        0.00000
 C         -0.00192        0.01421        0.00000
 O          0.37239        1.40356        0.00000
 H          1.34248        1.44036        0.00000
 H         -1.92991       -0.99819        0.00000
 H         -1.90797        0.54382       -0.88653
 H         -1.90797        0.54382        0.88653
 C          0.54303       -0.66466       -1.26580
 C          0.54303       -0.66466        1.26580
 H          0.17836       -0.14752       -2.15943
 H          0.17836       -0.14752        2.15943
 H          0.23752       -1.71600       -1.32280
 H          0.23752       -1.71600        1.32280
 H          1.64084       -0.63767       -1.28032
 H          1.64084       -0.63767        1.28032
 }
 basis={ default,sto-3g }
 {ks,B-P,direct;wf,42,1,0}
 {ibba,bonds=1}

 Variables initialized (895), CPU time= 0.00 sec
 Commands  initialized (725), CPU time= 0.01 sec, 591 directives.
 Default parameters read. Elapsed time= 0.12 sec

 Checking input...
 Passed
1


                                         ***  PROGRAM SYSTEM MOLPRO  ***
                                       Copyright, TTI GmbH Stuttgart, 2015
                                    Version 2099.9 linked May 26 2017 16:03:21


 **********************************************************************************************************************************
 LABEL *                                                                                 
  64 bit serial version                                                                  DATE: 09-Jun-17          TIME: 03:16:00  
 **********************************************************************************************************************************

 SHA1:             b4a5b34a9e711420743f49e6833241d17c61fb3c
 **********************************************************************************************************************************
 SETTING GEOMTYP        =    XYZ

 Variable memory set to  500000000 words,  buffer space 

 ZSYMEL=NOSYM

 SETTING BASIS          =    STO-3G


 Recomputing integrals since basis changed


 Using spherical harmonics

 Library entry C      S STO-3G               selected for orbital group  1
 Library entry C      P STO-3G               selected for orbital group  1
 Library entry O      S STO-3G               selected for orbital group  2
 Library entry O      P STO-3G               selected for orbital group  2
 Library entry H      S STO-3G               selected for orbital group  3


 PROGRAM * SEWARD (Integral evaluation for generally contracted gaussian basis sets)     Author: Roland Lindh, 1990

 Geometry written to block  1 of record 700


 Point group  C1  



 ATOMIC COORDINATES

 NR  ATOM    CHARGE       X              Y              Z

   1  C       6.00   -2.895684032    0.042462146    0.000000000
   2  C       6.00   -0.003628274    0.026853008    0.000000000
   3  O       8.00    0.703715112    2.652343999    0.000000000
   4  H       1.00    2.536919528    2.721885921    0.000000000
   5  H       1.00   -3.647001345   -1.886305720    0.000000000
   6  H       1.00   -3.605540754    1.027670861   -1.675298901
   7  H       1.00   -3.605540754    1.027670861    1.675298901
   8  C       6.00    1.026177977   -1.256025366   -2.392015328
   9  C       6.00    1.026177977   -1.256025366    2.392015328
  10  H       1.00    0.337051552   -0.278772398   -4.080731285
  11  H       1.00    0.337051552   -0.278772398    4.080731285
  12  H       1.00    0.448847749   -3.242770030   -2.499729718
  13  H       1.00    0.448847749   -3.242770030    2.499729718
  14  H       1.00    3.100738214   -1.205021658   -2.419454152
  15  H       1.00    3.100738214   -1.205021658    2.419454152

 Bond lengths in Bohr (Angstrom)

 1-2  2.892097881  1-5  2.069933136  1-6  2.069096224  1-7  2.069096224  2-3  2.719106031
     ( 1.530432290)     ( 1.095361444)     ( 1.094918569)     ( 1.094918569)     ( 1.438888946)

  2- 8  2.903104402   2- 9  2.903104402   3- 4  1.834522965   8-10  2.069222119   8-12  2.071730422
       ( 1.536256691)       ( 1.536256691)       ( 0.970787746)       ( 1.094985190)       ( 1.096312526)

  8-14  2.075368508   9-11  2.069222119   9-13  2.071730422   9-15  2.075368508
       ( 1.098237719)       ( 1.094985190)       ( 1.096312526)       ( 1.098237719)

 Bond angles

  1-2-3  104.76902697   1-2-8  110.92255387   1-2-9  110.92255387   2-1-5  110.97328220

  2- 1- 6  110.22090701   2- 1- 7  110.22090701   2- 3- 4  107.25071562   2- 8-10  110.21836376

  2- 8-12  111.57747468   2- 8-14  110.77023896   2- 9-11  110.21836376   2- 9-13  111.57747468

  2- 9-15  110.77023896   3- 2- 8  109.53648747   3- 2- 9  109.53648747   5- 1- 6  108.61190457

  5- 1- 7  108.61190457   6- 1- 7  108.12870271   8- 2- 9  110.96453384  10- 8-12  108.52192632

 10- 8-14  108.08997829  11- 9-13  108.52192632  11- 9-15  108.08997829  12- 8-14  107.54424578

 13- 9-15  107.54424578

 NUCLEAR CHARGE:                   42
 NUMBER OF PRIMITIVE AOS:         105
 NUMBER OF SYMMETRY AOS:          105
 NUMBER OF CONTRACTIONS:           35   (  35A   )
 NUMBER OF CORE ORBITALS:           5   (   5A   )
 NUMBER OF VALENCE ORBITALS:       30   (  30A   )


 NUCLEAR REPULSION ENERGY  198.77359127


 Eigenvalues of metric

         1 0.207E+00 0.227E+00 0.228E+00 0.304E+00 0.354E+00 0.360E+00 0.361E+00 0.363E+00


 Contracted 2-electron integrals neglected if value below      1.0D-11
 AO integral compression algorithm  1   Integral accuracy      1.0D-11

     1.573 MB (compressed) written to integral file ( 87.8%)


 NUMBER OF SORTED TWO-ELECTRON INTEGRALS:     198765.     BUFFER LENGTH:  32768
 NUMBER OF SEGMENTS:   1  SEGMENT LENGTH:     198765      RECORD LENGTH: 524288

 Memory used in sort:       0.76 MW

 SORT1 READ      224962. AND WROTE      188577. INTEGRALS IN      1 RECORDS. CPU TIME:     0.00 SEC, REAL TIME:     0.02 SEC
 SORT2 READ      188577. AND WROTE      198765. INTEGRALS IN      6 RECORDS. CPU TIME:     0.02 SEC, REAL TIME:     0.04 SEC

 FILE SIZES:   FILE 1:    31.8 MBYTE,  FILE 4:     4.2 MBYTE,   TOTAL:     36.0 MBYTE

 OPERATOR DM      FOR CENTER  0  COORDINATES:    0.000000    0.000000    0.000000


 **********************************************************************************************************************************
 DATASETS  * FILE   NREC   LENGTH (MB)   RECORD NAMES
              1      19       31.10       500      610      700      900      950      970     1000      129      960     1100   
                                          VAR    BASINP    GEOM    SYMINP    ZMAT    AOBASIS   BASIS     P2S    ABASIS      S 
                                         1400     1410     1200     1210     1080     1600     1650     1300     1700   
                                           T        V       H0       H01     AOSYM     SMH    MOLCAS    ERIS     OPER   

 PROGRAMS   *        TOTAL       INT
 CPU TIMES  *         0.67      0.52
 REAL TIME  *         2.60 SEC
 DISK USED  *        36.55 MB      
 **********************************************************************************************************************************

 Density functional group B-P=B88+P86
 Functional: B88(Automatically generated (new) B88)                            Gradient terms: 1
 Functional: P86(Automatically generated (new) P86)                            Gradient terms: 1
 Use grid at  1800.2

 Functional: B88                       Factor:  1.0000
 Functional: P86                       Factor:  1.0000

 Generated new metagrid on record  1800.2 with target accuracy 1.0D-06 and 53396 points in CPU time    1.7
 Computed new grid on record 1800.1 in CPU time    1.9
   32369 words reserved for DFT integration

 PROGRAM * RKS-SCF (Restricted closed shell Kohn-Sham)     Authors: W. Meyer, H.-J. Werner, P.J. Knowles, 1993

 NUMBER OF ELECTRONS:      21+   21-    SPACE SYMMETRY=1    SPIN SYMMETRY: Singlet 
 CONVERGENCE THRESHOLDS:    1.00E-05 (Density)    1.00E-06 (Energy)
 MAX. NUMBER OF ITERATIONS:       60
 INTERPOLATION TYPE:            DIIS
 INTERPOLATION STEPS:              2 (START)      1 (STEP)
 LEVEL SHIFTS:                  0.00 (CLOSED)  0.00 (OPEN) 



 Use fine grid record 1800.2 for energy threshold  1.0D-06
 Orbital guess generated from atomic densities. Full valence occupancy:   21

 Molecular orbital dump at record        2100.2

 Initial occupancy:  21

 ITERATION    DDIFF          GRAD             ENERGY        2-EL.EN.            DIPOLE MOMENTS         DIIS   ORB.
    1      0.000D+00      0.000D+00      -230.37811626    640.367356    0.76848   -1.05361    0.00000    0    start
    2      0.000D+00      0.295D-01      -230.39268275    608.796584   -0.31108    0.22181    0.00000    1    diag
    3      0.105D+00      0.290D-01      -230.73116473    623.875777    0.37363   -0.31453    0.00000    2    diag
    4      0.540D-01      0.117D-02      -230.73161133    623.872948    0.31899   -0.37541    0.00000    3    diag
    5      0.298D-02      0.570D-03      -230.73172949    623.812413    0.31631   -0.35716    0.00000    4    diag
    6      0.104D-02      0.603D-04      -230.73173119    623.810370    0.32140   -0.35583    0.00000    5    diag
    7      0.156D-03      0.159D-04      -230.73173127    623.809693    0.32096   -0.35650    0.00000    6    diag
    8      0.321D-04      0.487D-05      -230.73173128    623.809694    0.32076   -0.35632    0.00000    7    diag
    9      0.848D-05      0.813D-06      -230.73173128    623.809711    0.32082   -0.35639    0.00000    0    orth

 Final occupancy:  21

 !RKS STATE 1.1 Energy               -230.731731281191
 Nuclear energy                       198.77359127
 One-electron energy                 -707.27027271
 Two-electron energy                  311.90485555
 Density functional                   -34.13990540     B88=-32.60336284 P86= -1.53654255
 Virial quotient                       -1.01569806
 !RKS STATE 1.1 Dipole moment           0.32081922    -0.35639261     0.00000000
 Dipole moment /Debye                   0.81538771    -0.90580033     0.00000000

 Orbital energies:

         1.1          2.1          3.1          4.1          5.1          6.1          7.1          8.1          9.1         10.1
    -18.487221    -9.783760    -9.722205    -9.722059    -9.721966    -0.859817    -0.670299    -0.588137    -0.587219    -0.459599

        11.1         12.1         13.1         14.1         15.1         16.1         17.1         18.1         19.1         20.1
     -0.385767    -0.357800    -0.357265    -0.316104    -0.311375    -0.288365    -0.286807    -0.256330    -0.253214    -0.153444

        21.1         22.1         23.1
     -0.066708     0.251989     0.312422

 HOMO     21.1    -0.066708 =      -1.8152eV
 LUMO     22.1     0.251989 =       6.8570eV
 LUMO-HOMO         0.318697 =       8.6722eV


 **********************************************************************************************************************************
 DATASETS  * FILE   NREC   LENGTH (MB)   RECORD NAMES
              1      20       32.81       500      610      700      900      950      970     1000      129      960     1100   
                                          VAR    BASINP    GEOM    SYMINP    ZMAT    AOBASIS   BASIS     P2S    ABASIS      S 
                                         1400     1410     1200     1210     1080     1600     1650     1300     1700     1800   
                                           T        V       H0       H01     AOSYM     SMH    MOLCAS    ERIS     OPER     GRID   

              2       5        3.02       700     1000      520     1800     2100   
                                         GEOM     BASIS   MCVARS    GRID      RKS  

 PROGRAMS   *        TOTAL        KS       INT
 CPU TIMES  *         5.62      4.95      0.52
 REAL TIME  *        10.41 SEC
 DISK USED  *        36.55 MB      
 **********************************************************************************************************************************


 PROGRAM * Intrinsic Basis Bonding Analysis (IBBA)          Author: G. Knizia

 Molecular orbitals read from record     2100.2  Type=RKS/CANONICAL (state 1.1)
 Fock matrix read from record            2100.2  Type=RKS/TOTAL (state 1.1)
 Orbital energies read from record       2100.2  Type=RKS/CANONICAL (state 1.1)
 Density matrix read from record         2100.2  Type=RKS/CHARGE (state 1.1)

 Number of core orbitals:           5 (   5 )
 Number of closed-shell orbitals:  16 (  16 )

 Basis set MINAO-AUTO-PP generated.      Number of basis functions:   35 

 Polarized AO type:                A = (O Ot + (1-O)(1-Ot)) P12
 Orthogonalization method:         Symmetric (Loewdin)
 Localization functional:          L = sum[A,i] <i|n_A|i>^4 -> max

 Localization group 1:  21 orbitals, occupancy  2.000
 Iterative localization: IB/PM,    7 iter; Final gradient 0.15E-08

 Bond order analysis:       [THRPRINT= 0.020]

   CEN ATOM   CEN ATOM     WIBERG.BO      RENORM.BO
     1   C  -   2   C       0.990181       0.984772
     1   C  -   5   H       0.965784       0.989681
     1   C  -   6   H       0.962397       0.986608
     1   C  -   7   H       0.962397       0.986608

     2   C  -   3   O       1.004961       0.980701
     2   C  -   1   C       0.990181       0.984772
     2   C  -   8   C       0.985046       0.957805
     2   C  -   9   C       0.985046       0.957805

     3   O  -   2   C       1.004961       0.980701
     3   O  -   4   H       0.929428       0.981010
     3   O  -   9   C       0.030277       0.015691
     3   O  -   8   C       0.030277       0.015691

     4   H  -   3   O       0.929428       0.981010

     5   H  -   1   C       0.965784       0.989681

     6   H  -   1   C       0.962397       0.986608

     7   H  -   1   C       0.962397       0.986608

     8   C  -   2   C       0.985046       0.957805
     8   C  -  14   H       0.965218       0.985803
     8   C  -  12   H       0.963462       0.986750
     8   C  -  10   H       0.963283       0.986284
     8   C  -   3   O       0.030277       0.015691

     9   C  -   2   C       0.985046       0.957805
     9   C  -  15   H       0.965218       0.985803
     9   C  -  13   H       0.963462       0.986750
     9   C  -  11   H       0.963283       0.986284
     9   C  -   3   O       0.030277       0.015691

    10   H  -   8   C       0.963283       0.986284

    11   H  -   9   C       0.963283       0.986284

    12   H  -   8   C       0.963462       0.986750

    13   H  -   9   C       0.963462       0.986750

    14   H  -   8   C       0.965218       0.985803

    15   H  -   9   C       0.965218       0.985803


 Valency analysis:

   CEN ATOM   TOT.VALENCE
     1   C       3.932810
     2   C       3.974799
     3   O       2.048215
     4   H       0.947654
     5   H       0.982436
     6   H       0.980911
     7   H       0.980911
     8   C       3.935670
     9   C       3.935670
    10   H       0.981548
    11   H       0.981548
    12   H       0.982074
    13   H       0.982074
    14   H       0.983943
    15   H       0.983943

 Total charge composition:

   CEN ATOM         s          p       ELECTRONS ->P.CHARGE
     1   C       3.00107    3.39652      6.39759   -0.39759
     2   C       2.94776    2.93719      5.88495    0.11505
     3   O       3.68721    4.63905      8.32626   -0.32626
     4   H       0.77121                 0.77121    0.22879
     5   H       0.86747                 0.86747    0.13253
     6   H       0.86184                 0.86184    0.13816
     7   H       0.86184                 0.86184    0.13816
     8   C       3.00631    3.40456      6.41087   -0.41087
     9   C       3.00631    3.40456      6.41087   -0.41087
    10   H       0.86416                 0.86416    0.13584
    11   H       0.86416                 0.86416    0.13584
    12   H       0.86611                 0.86611    0.13389
    13   H       0.86611                 0.86611    0.13389
    14   H       0.87328                 0.87328    0.12672
    15   H       0.87328                 0.87328    0.12672

 Total charge composition, AO contributions:

   CEN ATOM SHL      SPHERICAL COMPONENTS
     1   C  1s       1.99201
     1   C  2s       1.00907
     1   C  2p       1.05172    1.16856    1.17623

     2   C  1s       1.99340
     2   C  2s       0.95436
     2   C  2p       1.03012    0.87895    1.02811

     3   O  1s       1.99737
     3   O  2s       1.68985
     3   O  2p       1.34707    1.34157    1.95041

     4   H  1s       0.77121

     5   H  1s       0.86747

     6   H  1s       0.86184

     7   H  1s       0.86184

     8   C  1s       1.99211
     8   C  2s       1.01420
     8   C  2p       1.15070    1.15150    1.10237

     9   C  1s       1.99211
     9   C  2s       1.01420
     9   C  2p       1.15070    1.15150    1.10237

    10   H  1s       0.86416

    11   H  1s       0.86416

    12   H  1s       0.86611

    13   H  1s       0.86611

    14   H  1s       0.87328

    15   H  1s       0.87328

 Summary of localized orbital composition:   [THRPRINT= 0.020]

   ORB  GRP  ORB.ENERGY      CENTERS/CHARGES
     1   1   -18.317860      O  3   2.000
     2   1    -9.692679      C  2   2.000
     3   1    -9.612990      C  8   2.000
     4   1    -9.612990      C  9   2.000
     5   1    -9.612290      C  1   2.000
     6   1    -0.594496      O  3   1.227   H  4   0.763
     7   1    -0.550410      O  3   1.158   C  2   0.825
     8   1    -0.469341      C  2   0.993   C  1   0.983   (other: 0.023)
     9   1    -0.468789      C  8   0.999   C  2   0.987
    10   1    -0.468789      C  9   0.999   C  2   0.987
    11   1    -0.429571      O  3   1.985
    12   1    -0.417115      C  8   1.124   H 14   0.867
    13   1    -0.417115      C  9   1.124   H 15   0.867
    14   1    -0.415505      C  9   1.131   H 13   0.858
    15   1    -0.415505      C  8   1.131   H 12   0.858
    16   1    -0.414144      C  1   1.129   H  5   0.861
    17   1    -0.412669      C  9   1.134   H 11   0.857
    18   1    -0.412669      C  8   1.134   H 10   0.857
    19   1    -0.408379      C  1   1.136   H  6   0.855
    20   1    -0.408379      C  1   1.136   H  7   0.855
    21   1    -0.083777      O  3   1.950   C  2   0.023   (other: 0.026)

 Localized orbitals saved to record      2100.2  (orbital set 2)


 **********************************************************************************************************************************
 DATASETS  * FILE   NREC   LENGTH (MB)   RECORD NAMES
              1      20       32.81       500      610      700      900      950      970     1000      129      960     1100   
                                          VAR    BASINP    GEOM    SYMINP    ZMAT    AOBASIS   BASIS     P2S    ABASIS      S 
                                         1400     1410     1200     1210     1080     1600     1650     1300     1700     1800   
                                           T        V       H0       H01     AOSYM     SMH    MOLCAS    ERIS     OPER     GRID   

              2       5        3.03       700     1000      520     1800     2100   
                                         GEOM     BASIS   MCVARS    GRID      RKS  

 PROGRAMS   *        TOTAL      IBBA        KS       INT
 CPU TIMES  *         5.66      0.04      4.95      0.52
 REAL TIME  *        10.57 SEC
 DISK USED  *        36.55 MB      
 **********************************************************************************************************************************
 Molecular orbitals read from record     2100.2  Type=RKS/LOCAL(IBO)  
 Occupation numbers read from record     2100.2  Type=RKS/LOCAL(IBO)  
 Orbital energies read from record       2100.2  Type=RKS/LOCAL(IBO)  
 Redundancy group numbers read from rec  2100.2  Type=RKS/LOCAL(IBO)  

 IBBA/STO-3G energy=      0.000000000000

        KS-SCF  
   -230.73173128
 **********************************************************************************************************************************
 Molpro calculation terminated
