
 Primary working directories    : /tmp/sb13343
 Secondary working directories  : /tmp/sb13343
 Wavefunction directory         : /panfs/panasas01/chem/sb13343/wfu/
 Main file repository           : /tmp/sb13343/

 SHA1      : b4a5b34a9e711420743f49e6833241d17c61fb3c
 NAME      : 2099.9.b4a5b34
 ARCHNAME  : linux/x86_64_openmp
 FC        : /cm/shared/languages/GCC-6.1/bin/gfortran
 BLASLIB   : -lblas
 id        : simonbennie

 Nodes     nprocs
 node32-039    1

 Using customized tuning parameters: mindgm=1; mindgv=20; mindgc=4; mindgr=1; noblas=0; minvec=7
 default implementation of scratch files=df  

 memory,500,m
 geomtyp=xyz
 nosym
 noorient
 geometry={
 C          0.00000        0.00000        0.00000
 C          0.00000        0.00000        1.53307
 O          1.40344        0.00000        1.86307
 C          1.76314        0.00000        3.22887
 H         -1.02289        0.00000       -0.39176
 H          0.51995       -0.88625       -0.37815
 H          0.51995        0.88625       -0.37815
 H          2.85677        0.00000        3.25413
 H          1.40708       -0.89217        3.76475
 H          1.40708        0.89217        3.76475
 C         -0.69252       -1.26694        2.06222
 C         -0.69252        1.26694        2.06222
 H         -0.15366       -2.16088        1.72982
 H         -0.15366        2.16088        1.72982
 H         -1.72011       -1.32515        1.68649
 H         -1.72011        1.32515        1.68649
 H         -0.74365       -1.28188        3.15638
 H         -0.74365        1.28188        3.15638
 }
 basis={ default,svp }
 {ks,BH-LYP,direct;wf,50,1,0}
 {ibba,bonds=1}

 Variables initialized (895), CPU time= 0.00 sec
 Commands  initialized (725), CPU time= 0.01 sec, 591 directives.
 Default parameters read. Elapsed time= 0.08 sec

 Checking input...
 Passed
1


                                         ***  PROGRAM SYSTEM MOLPRO  ***
                                       Copyright, TTI GmbH Stuttgart, 2015
                                    Version 2099.9 linked May 26 2017 16:03:21


 **********************************************************************************************************************************
 LABEL *                                                                                 
  64 bit serial version                                                                  DATE: 09-Jun-17          TIME: 01:51:57  
 **********************************************************************************************************************************

 SHA1:             b4a5b34a9e711420743f49e6833241d17c61fb3c
 **********************************************************************************************************************************
 SETTING GEOMTYP        =    XYZ

 Variable memory set to  500000000 words,  buffer space 

 ZSYMEL=NOSYM

 SETTING BASIS          =    SVP


 Recomputing integrals since basis changed


 Using spherical harmonics

 Library entry C      S def2-SVP             selected for orbital group  1
 Library entry C      P def2-SVP             selected for orbital group  1
 Library entry C      D def2-SVP             selected for orbital group  1
 Library entry O      S def2-SVP             selected for orbital group  2
 Library entry O      P def2-SVP             selected for orbital group  2
 Library entry O      D def2-SVP             selected for orbital group  2
 Library entry H      S def2-SVP             selected for orbital group  4
 Library entry H      P def2-SVP             selected for orbital group  4


 PROGRAM * SEWARD (Integral evaluation for generally contracted gaussian basis sets)     Author: Roland Lindh, 1990

 Geometry written to block  1 of record 700


 Point group  C1  



 ATOMIC COORDINATES

 NR  ATOM    CHARGE       X              Y              Z

   1  C       6.00    0.000000000    0.000000000    0.000000000
   2  C       6.00    0.000000000    0.000000000    2.897082430
   3  O       8.00    2.652117232    0.000000000    3.520692051
   4  C       6.00    3.331851719    0.000000000    6.101679992
   5  H       1.00   -1.932981956    0.000000000   -0.740319107
   6  H       1.00    0.982563098   -1.674769778   -0.714599934
   7  H       1.00    0.982563098    1.674769778   -0.714599934
   8  H       1.00    5.398512901    0.000000000    6.149414474
   9  H       1.00    2.658995835   -1.685956957    7.114346427
  10  H       1.00    2.658995835    1.685956957    7.114346427
  11  C       6.00   -1.308673136   -2.394169616    3.897031009
  12  C       6.00   -1.308673136    2.394169616    3.897031009
  13  H       1.00   -0.290375316   -4.083471388    3.268886045
  14  H       1.00   -0.290375316    4.083471388    3.268886045
  15  H       1.00   -3.250536804   -2.504170574    3.187004212
  16  H       1.00   -3.250536804    2.504170574    3.187004212
  17  H       1.00   -1.405294833   -2.422402125    5.964693745
  18  H       1.00   -1.405294833    2.422402125    5.964693745

 Bond lengths in Bohr (Angstrom)

 1-2  2.897082430  1-5  2.069901355  1-6  2.069042560  1-7  2.069042560  2-3  2.724447609
     ( 1.533070000)     ( 1.095344626)     ( 1.094890171)     ( 1.094890171)     ( 1.441715587)

  2-11  2.905954351   2-12  2.905954351   3- 4  2.668995640   4- 8  2.067212379   4- 9  2.078624355
       ( 1.537764818)       ( 1.537764818)       ( 1.412371669)       ( 1.093921681)       ( 1.099960639)

  4-10  2.078624355  11-13  2.070081404  11-15  2.070524757  11-17  2.070111596  12-14  2.070081404
       ( 1.099960639)       ( 1.095439904)       ( 1.095674516)       ( 1.095455880)       ( 1.095439904)

 12-16  2.070524757  12-18  2.070111596
       ( 1.095674516)       ( 1.095455880)

 Bond angles

  1- 2- 3  103.23196371   1- 2-11  110.12706952   1- 2-12  110.12706952   2- 1- 5  110.95650426

  2- 1- 6  110.20481748   2- 1- 7  110.20481748   2- 3- 4  117.98647004   2-11-13  110.26679927

  2-11-15  110.37287188   2-11-17  112.08316935   2-12-14  110.26679927   2-12-16  110.37287188

  2-12-18  112.08316935   3- 2-11  111.07703285   3- 2-12  111.07703285   3- 4- 8  106.07765410

  3- 4- 9  112.87219182   3- 4-10  112.87219182   5- 1- 6  108.65976572   5- 1- 7  108.65976572

  6- 1- 7  108.08288210   8- 4- 9  108.20190897   8- 4-10  108.20190897   9- 4-10  108.40564999

 11- 2-12  110.95103964  13-11-15  108.29648994  13-11-17  108.35544687  14-12-16  108.29648994

 14-12-18  108.35544687  15-11-17  107.33851825  16-12-18  107.33851825

 NUCLEAR CHARGE:                   50
 NUMBER OF PRIMITIVE AOS:         234
 NUMBER OF SYMMETRY AOS:          228
 NUMBER OF CONTRACTIONS:          144   ( 144A   )
 NUMBER OF CORE ORBITALS:           6   (   6A   )
 NUMBER OF VALENCE ORBITALS:       36   (  36A   )


 NUCLEAR REPULSION ENERGY  270.15500869


 Eigenvalues of metric

         1 0.176E-02 0.508E-02 0.513E-02 0.102E-01 0.124E-01 0.215E-01 0.221E-01 0.252E-01


 Contracted 2-electron integrals neglected if value below      1.0D-11
 AO integral compression algorithm  1   Integral accuracy      1.0D-11

     186.384 MB (compressed) written to integral file ( 41.3%)


 NUMBER OF SORTED TWO-ELECTRON INTEGRALS:   54502020.     BUFFER LENGTH:  32768
 NUMBER OF SEGMENTS:   4  SEGMENT LENGTH:   15999503      RECORD LENGTH: 524288

 Memory used in sort:      16.56 MW

 SORT1 READ    56333432. AND WROTE    45703433. INTEGRALS IN    132 RECORDS. CPU TIME:     0.76 SEC, REAL TIME:     1.41 SEC
 SORT2 READ    45703433. AND WROTE    54502020. INTEGRALS IN    711 RECORDS. CPU TIME:     1.11 SEC, REAL TIME:     1.40 SEC

 FILE SIZES:   FILE 1:   217.4 MBYTE,  FILE 4:   553.7 MBYTE,   TOTAL:    771.1 MBYTE

 OPERATOR DM      FOR CENTER  0  COORDINATES:    0.000000    0.000000    0.000000


 **********************************************************************************************************************************
 DATASETS  * FILE   NREC   LENGTH (MB)   RECORD NAMES
              1      19      194.45       500      610      700      900      950      970     1000      129      960     1100   
                                          VAR    BASINP    GEOM    SYMINP    ZMAT    AOBASIS   BASIS     P2S    ABASIS      S 
                                         1400     1410     1200     1210     1080     1600     1650     1300     1700   
                                           T        V       H0       H01     AOSYM     SMH    MOLCAS    ERIS     OPER   

 PROGRAMS   *        TOTAL       INT
 CPU TIMES  *         7.19      7.04
 REAL TIME  *         9.23 SEC
 DISK USED  *       771.70 MB      
 **********************************************************************************************************************************

 Density functional group BH-LYP=B88+LYP
 Functional: B88(Automatically generated (new) B88)                            Gradient terms: 1
 Functional: LYP(Automatically generated (new) LYP)                            Gradient terms: 1
 Use grid at  1800.2


 Exact exchange will be calculated, factor:  0.5000

 Functional: B88                       Factor:  0.5000
 Functional: LYP                       Factor:  1.0000

 Generated new metagrid on record  1800.2 with target accuracy 1.0D-06 and 66012 points in CPU time    1.9
 Computed new grid on record 1800.1 in CPU time    2.2
  118710 words reserved for DFT integration

 PROGRAM * RKS-SCF (Restricted closed shell Kohn-Sham)     Authors: W. Meyer, H.-J. Werner, P.J. Knowles, 1993

 NUMBER OF ELECTRONS:      25+   25-    SPACE SYMMETRY=1    SPIN SYMMETRY: Singlet 
 CONVERGENCE THRESHOLDS:    1.00E-05 (Density)    1.00E-06 (Energy)
 MAX. NUMBER OF ITERATIONS:       60
 INTERPOLATION TYPE:            DIIS
 INTERPOLATION STEPS:              2 (START)      1 (STEP)
 LEVEL SHIFTS:                  0.00 (CLOSED)  0.00 (OPEN) 



 Use fine grid record 1800.2 for energy threshold  1.0D-06
 Orbital guess generated from atomic densities. Full valence occupancy:   25

 Molecular orbital dump at record        2100.2

 Initial occupancy:  25

 ITERATION    DDIFF          GRAD             ENERGY        2-EL.EN.            DIPOLE MOMENTS         DIIS   ORB.
    1      0.000D+00      0.000D+00      -272.47970861    773.543466   -0.72859    0.00000    0.63126    0    start
    2      0.000D+00      0.599D-02      -272.52793149    754.119102   -0.15677    0.00000    0.10497    1    diag
    3      0.104D-01      0.497D-02      -272.59845862    763.447467   -0.40981    0.00000    0.38462    2    diag
    4      0.511D-02      0.557D-03      -272.59898206    763.008600   -0.36640    0.00000    0.34926    3    diag
    5      0.576D-03      0.305D-03      -272.59920927    763.052961   -0.39200    0.00000    0.36272    4    diag
    6      0.271D-03      0.442D-04      -272.59921391    763.089646   -0.38622    0.00000    0.36138    5    diag
    7      0.499D-04      0.144D-04      -272.59921447    763.079908   -0.38655    0.00000    0.36143    6    diag
    8      0.129D-04      0.192D-05      -272.59921448    763.081385   -0.38670    0.00000    0.36157    7    diag
    9      0.294D-05      0.283D-06      -272.59921448    763.081155   -0.38662    0.00000    0.36150    0    orth

 Final occupancy:  25

 !RKS STATE 1.1 Energy               -272.599214476789
 Nuclear energy                       270.15500869
 One-electron energy                 -903.46514478
 Two-electron energy                  381.54057729
 SCF exchange energy                  -38.39428743     Factor= 0.5000
 Density functional                   -20.82965568     B88=-38.39998791 LYP= -1.62966173
 Virial quotient                       -1.01075525
 !RKS STATE 1.1 Dipole moment          -0.38662443     0.00000000     0.36149615
 Dipole moment /Debye                  -0.98263693     0.00000000     0.91877139

 Orbital energies:

         1.1          2.1          3.1          4.1          5.1          6.1          7.1          8.1          9.1         10.1
    -19.667448   -10.645200   -10.630702   -10.581949   -10.581936   -10.575730    -1.140997    -0.897953    -0.788426    -0.783390

        11.1         12.1         13.1         14.1         15.1         16.1         17.1         18.1         19.1         20.1
     -0.757671    -0.625765    -0.554031    -0.532987    -0.532892    -0.498236    -0.479890    -0.462678    -0.445700    -0.435771

        21.1         22.1         23.1         24.1         25.1         26.1         27.1
     -0.428022    -0.403919    -0.403463    -0.359448    -0.318622     0.086796     0.121351

 HOMO     25.1    -0.318622 =      -8.6701eV
 LUMO     26.1     0.086796 =       2.3618eV
 LUMO-HOMO         0.405417 =      11.0320eV


 **********************************************************************************************************************************
 DATASETS  * FILE   NREC   LENGTH (MB)   RECORD NAMES
              1      20      196.57       500      610      700      900      950      970     1000      129      960     1100   
                                          VAR    BASINP    GEOM    SYMINP    ZMAT    AOBASIS   BASIS     P2S    ABASIS      S 
                                         1400     1410     1200     1210     1080     1600     1650     1300     1700     1800   
                                           T        V       H0       H01     AOSYM     SMH    MOLCAS    ERIS     OPER     GRID   

              2       5        3.48       700     1000      520     1800     2100   
                                         GEOM     BASIS   MCVARS    GRID      RKS  

 PROGRAMS   *        TOTAL        KS       INT
 CPU TIMES  *        29.86     22.67      7.04
 REAL TIME  *        32.92 SEC
 DISK USED  *       771.70 MB      
 **********************************************************************************************************************************


 PROGRAM * Intrinsic Basis Bonding Analysis (IBBA)          Author: G. Knizia

 Molecular orbitals read from record     2100.2  Type=RKS/CANONICAL (state 1.1)
 Fock matrix read from record            2100.2  Type=RKS/TOTAL (state 1.1)
 Orbital energies read from record       2100.2  Type=RKS/CANONICAL (state 1.1)
 Density matrix read from record         2100.2  Type=RKS/CHARGE (state 1.1)

 Number of core orbitals:           6 (   6 )
 Number of closed-shell orbitals:  19 (  19 )

 Basis set MINAO-AUTO-PP generated.      Number of basis functions:   42 

 Polarized AO type:                A = (O Ot + (1-O)(1-Ot)) P12
 Orthogonalization method:         Symmetric (Loewdin)
 Localization functional:          L = sum[A,i] <i|n_A|i>^4 -> max

 Localization group 1:  25 orbitals, occupancy  2.000
 Iterative localization: IB/PM,    7 iter; Final gradient 0.15E-08

 Bond order analysis:       [THRPRINT= 0.020]

   CEN ATOM   CEN ATOM     WIBERG.BO      RENORM.BO
     1   C  -   2   C       0.996413       0.996120
     1   C  -   5   H       0.968526       0.987232
     1   C  -   7   H       0.963997       0.983995
     1   C  -   6   H       0.963997       0.983995

     2   C  -   1   C       0.996413       0.996120
     2   C  -  12   C       0.992762       0.975921
     2   C  -  11   C       0.992762       0.975921
     2   C  -   3   O       0.921489       0.944163

     3   O  -   4   C       0.979696       1.013380
     3   O  -   2   C       0.921489       0.944163
     3   O  -   9   H       0.029188       0.017067
     3   O  -  10   H       0.029188       0.017067
     3   O  -  12   C       0.022831       0.011871
     3   O  -  11   C       0.022831       0.011871

     4   C  -   3   O       0.979696       1.013380
     4   C  -   8   H       0.960875       0.980263
     4   C  -   9   H       0.955931       0.945780
     4   C  -  10   H       0.955931       0.945780

     5   H  -   1   C       0.968526       0.987232

     6   H  -   1   C       0.963997       0.983995

     7   H  -   1   C       0.963997       0.983995

     8   H  -   4   C       0.960875       0.980263

     9   H  -   4   C       0.955931       0.945780
     9   H  -   3   O       0.029188       0.017067

    10   H  -   4   C       0.955931       0.945780
    10   H  -   3   O       0.029188       0.017067

    11   C  -   2   C       0.992762       0.975921
    11   C  -  17   H       0.966855       0.983817
    11   C  -  15   H       0.965191       0.988380
    11   C  -  13   H       0.964298       0.983976
    11   C  -   3   O       0.022831       0.011871

    12   C  -   2   C       0.992762       0.975921
    12   C  -  18   H       0.966855       0.983817
    12   C  -  16   H       0.965191       0.988380
    12   C  -  14   H       0.964298       0.983976
    12   C  -   3   O       0.022831       0.011871

    13   H  -  11   C       0.964298       0.983976

    14   H  -  12   C       0.964298       0.983976

    15   H  -  11   C       0.965191       0.988380

    16   H  -  12   C       0.965191       0.988380

    17   H  -  11   C       0.966855       0.983817

    18   H  -  12   C       0.966855       0.983817


 Valency analysis:

   CEN ATOM   TOT.VALENCE
     1   C       3.945127
     2   C       3.928901
     3   O       2.064041
     4   C       3.872621
     5   H       0.985926
     6   H       0.982750
     7   H       0.982750
     8   H       0.979771
     9   H       0.988779
    10   H       0.988779
    11   C       3.945250
    12   C       3.945250
    13   H       0.982969
    14   H       0.982969
    15   H       0.983740
    16   H       0.983740
    17   H       0.985555
    18   H       0.985555

 Total charge composition:

   CEN ATOM         s          p       ELECTRONS ->P.CHARGE
     1   C       3.02181    3.35352      6.37534   -0.37534
     2   C       2.92388    2.81520      5.73908    0.26092
     3   O       3.59824    4.83400      8.43224   -0.43224
     4   C       3.00830    3.14751      6.15580   -0.15580
     5   H       0.88137                 0.88137    0.11863
     6   H       0.86866                 0.86866    0.13134
     7   H       0.86866                 0.86866    0.13134
     8   H       0.85777                 0.85777    0.14223
     9   H       0.89407                 0.89407    0.10593
    10   H       0.89407                 0.89407    0.10593
    11   C       3.02205    3.37262      6.39467   -0.39467
    12   C       3.02205    3.37262      6.39467   -0.39467
    13   H       0.86950                 0.86950    0.13050
    14   H       0.86950                 0.86950    0.13050
    15   H       0.87249                 0.87249    0.12751
    16   H       0.87249                 0.87249    0.12751
    17   H       0.87981                 0.87981    0.12019
    18   H       0.87981                 0.87981    0.12019

 Total charge composition, AO contributions:

   CEN ATOM SHL      SPHERICAL COMPONENTS
     1   C  1s       1.99066
     1   C  2s       1.03115
     1   C  2p       1.15012    1.16415    1.03925

     2   C  1s       1.99237
     2   C  2s       0.93150
     2   C  2p       0.78710    1.01349    1.01462

     3   O  1s       1.99715
     3   O  2s       1.60109
     3   O  2p       1.44905    1.92391    1.46104

     4   C  1s       1.99133
     4   C  2s       1.01697
     4   C  2p       1.15033    1.15611    0.84107

     5   H  1s       0.88137

     6   H  1s       0.86866

     7   H  1s       0.86866

     8   H  1s       0.85777

     9   H  1s       0.89407

    10   H  1s       0.89407

    11   C  1s       1.99071
    11   C  2s       1.03134
    11   C  2p       1.13713    1.09282    1.14267

    12   C  1s       1.99071
    12   C  2s       1.03134
    12   C  2p       1.13713    1.09282    1.14267

    13   H  1s       0.86950

    14   H  1s       0.86950

    15   H  1s       0.87249

    16   H  1s       0.87249

    17   H  1s       0.87981

    18   H  1s       0.87981

 Summary of localized orbital composition:   [THRPRINT= 0.020]

   ORB  GRP  ORB.ENERGY      CENTERS/CHARGES
     1   1   -19.513983      O  3   2.000
     2   1   -10.550495      C  2   2.000
     3   1   -10.517109      C  4   2.000
     4   1   -10.463153      C 12   2.000
     5   1   -10.463153      C 11   2.000
     6   1   -10.456283      C  1   2.000
     7   1    -0.851293      O  3   1.256   C  4   0.737
     8   1    -0.824357      O  3   1.282   C  2   0.696   (other: 0.022)
     9   1    -0.652314      C 11   1.008   C  2   0.978
    10   1    -0.652314      C 12   1.008   C  2   0.978
    11   1    -0.648422      C  1   0.990   C  2   0.990   (other: 0.020)
    12   1    -0.634063      O  3   1.966   (other: 0.034)
    13   1    -0.594003      C  4   1.122   H  9   0.877
    14   1    -0.594003      C  4   1.122   H 10   0.877
    15   1    -0.590179      C  4   1.141   H  8   0.852
    16   1    -0.576934      C 11   1.121   H 15   0.865
    17   1    -0.576934      C 12   1.121   H 16   0.865
    18   1    -0.575677      C 12   1.118   H 18   0.873
    19   1    -0.575677      C 11   1.118   H 17   0.873
    20   1    -0.572153      C  1   1.114   H  5   0.875
    21   1    -0.571063      C 12   1.128   H 14   0.862
    22   1    -0.571063      C 11   1.128   H 13   0.862
    23   1    -0.564909      C  1   1.129   H  7   0.862
    24   1    -0.564909      C  1   1.129   H  6   0.862
    25   1    -0.378383      O  3   1.924   (other: 0.076)

 Localized orbitals saved to record      2100.2  (orbital set 2)


 **********************************************************************************************************************************
 DATASETS  * FILE   NREC   LENGTH (MB)   RECORD NAMES
              1      20      196.57       500      610      700      900      950      970     1000      129      960     1100   
                                          VAR    BASINP    GEOM    SYMINP    ZMAT    AOBASIS   BASIS     P2S    ABASIS      S 
                                         1400     1410     1200     1210     1080     1600     1650     1300     1700     1800   
                                           T        V       H0       H01     AOSYM     SMH    MOLCAS    ERIS     OPER     GRID   

              2       5        3.65       700     1000      520     1800     2100   
                                         GEOM     BASIS   MCVARS    GRID      RKS  

 PROGRAMS   *        TOTAL      IBBA        KS       INT
 CPU TIMES  *        29.92      0.06     22.67      7.04
 REAL TIME  *        33.11 SEC
 DISK USED  *       771.70 MB      
 **********************************************************************************************************************************
 Molecular orbitals read from record     2100.2  Type=RKS/LOCAL(IBO)  
 Occupation numbers read from record     2100.2  Type=RKS/LOCAL(IBO)  
 Orbital energies read from record       2100.2  Type=RKS/LOCAL(IBO)  
 Redundancy group numbers read from rec  2100.2  Type=RKS/LOCAL(IBO)  

 IBBA/SVP energy=      0.000000000000

        KS-SCF  
   -272.59921448
 **********************************************************************************************************************************
 Molpro calculation terminated
