
 Primary working directories    : /local
 Secondary working directories  : /local
 Wavefunction directory         : /local/
 Main file repository           : /local/

 SHA1      : b4a5b34a9e711420743f49e6833241d17c61fb3c
 NAME      : 2099.9.b4a5b34
 ARCHNAME  : linux/x86_64_openmp
 FC        : /cm/shared/languages/GCC-6.1/bin/gfortran
 BLASLIB   : -lblas
 id        : simonbennie

 Nodes     nprocs
 node33-013    1

 Using customized tuning parameters: mindgm=1; mindgv=20; mindgc=4; mindgr=1; noblas=0; minvec=7
 default implementation of scratch files=df  

 memory,500,m
 geomtyp=xyz
 nosym
 noorient
 geometry={
 C         -1.53233        0.02247        0.00000
 C         -0.00192        0.01421        0.00000
 O          0.37239        1.40356        0.00000
 H          1.34248        1.44036        0.00000
 H         -1.92991       -0.99819        0.00000
 H         -1.90797        0.54382       -0.88653
 H         -1.90797        0.54382        0.88653
 C          0.54303       -0.66466       -1.26580
 C          0.54303       -0.66466        1.26580
 H          0.17836       -0.14752       -2.15943
 H          0.17836       -0.14752        2.15943
 H          0.23752       -1.71600       -1.32280
 H          0.23752       -1.71600        1.32280
 H          1.64084       -0.63767       -1.28032
 H          1.64084       -0.63767        1.28032
 }
 basis={ default,SV(P) }
 {ks,M06,direct;wf,42,1,0}
 {ibba,bonds=1}

 Variables initialized (895), CPU time= 0.01 sec
 Commands  initialized (725), CPU time= 0.01 sec, 591 directives.
 Default parameters read. Elapsed time= 0.08 sec

 Checking input...
 Passed
1


                                         ***  PROGRAM SYSTEM MOLPRO  ***
                                       Copyright, TTI GmbH Stuttgart, 2015
                                    Version 2099.9 linked May 26 2017 16:03:21


 **********************************************************************************************************************************
 LABEL *                                                                                 
  64 bit serial version                                                                  DATE: 12-Jun-17          TIME: 20:08:09  
 **********************************************************************************************************************************

 SHA1:             b4a5b34a9e711420743f49e6833241d17c61fb3c
 **********************************************************************************************************************************
 SETTING GEOMTYP        =    XYZ

 Variable memory set to  500000000 words,  buffer space 

 ZSYMEL=NOSYM

 SETTING BASIS          =    SV(P)


 Recomputing integrals since basis changed


 Using spherical harmonics

 Library entry C      S def2-SV(P)           selected for orbital group  1
 Library entry C      P def2-SV(P)           selected for orbital group  1
 Library entry C      D def2-SV(P)           selected for orbital group  1
 Library entry O      S def2-SV(P)           selected for orbital group  2
 Library entry O      P def2-SV(P)           selected for orbital group  2
 Library entry O      D def2-SV(P)           selected for orbital group  2
 Library entry H      S def2-SV(P)           selected for orbital group  3


 PROGRAM * SEWARD (Integral evaluation for generally contracted gaussian basis sets)     Author: Roland Lindh, 1990

 Geometry written to block  1 of record 700


 Point group  C1  



 ATOMIC COORDINATES

 NR  ATOM    CHARGE       X              Y              Z

   1  C       6.00   -2.895684032    0.042462146    0.000000000
   2  C       6.00   -0.003628274    0.026853008    0.000000000
   3  O       8.00    0.703715112    2.652343999    0.000000000
   4  H       1.00    2.536919528    2.721885921    0.000000000
   5  H       1.00   -3.647001345   -1.886305720    0.000000000
   6  H       1.00   -3.605540754    1.027670861   -1.675298901
   7  H       1.00   -3.605540754    1.027670861    1.675298901
   8  C       6.00    1.026177977   -1.256025366   -2.392015328
   9  C       6.00    1.026177977   -1.256025366    2.392015328
  10  H       1.00    0.337051552   -0.278772398   -4.080731285
  11  H       1.00    0.337051552   -0.278772398    4.080731285
  12  H       1.00    0.448847749   -3.242770030   -2.499729718
  13  H       1.00    0.448847749   -3.242770030    2.499729718
  14  H       1.00    3.100738214   -1.205021658   -2.419454152
  15  H       1.00    3.100738214   -1.205021658    2.419454152

 Bond lengths in Bohr (Angstrom)

 1-2  2.892097881  1-5  2.069933136  1-6  2.069096224  1-7  2.069096224  2-3  2.719106031
     ( 1.530432290)     ( 1.095361444)     ( 1.094918569)     ( 1.094918569)     ( 1.438888946)

  2- 8  2.903104402   2- 9  2.903104402   3- 4  1.834522965   8-10  2.069222119   8-12  2.071730422
       ( 1.536256691)       ( 1.536256691)       ( 0.970787746)       ( 1.094985190)       ( 1.096312526)

  8-14  2.075368508   9-11  2.069222119   9-13  2.071730422   9-15  2.075368508
       ( 1.098237719)       ( 1.094985190)       ( 1.096312526)       ( 1.098237719)

 Bond angles

  1-2-3  104.76902697   1-2-8  110.92255387   1-2-9  110.92255387   2-1-5  110.97328220

  2- 1- 6  110.22090701   2- 1- 7  110.22090701   2- 3- 4  107.25071562   2- 8-10  110.21836376

  2- 8-12  111.57747468   2- 8-14  110.77023896   2- 9-11  110.21836376   2- 9-13  111.57747468

  2- 9-15  110.77023896   3- 2- 8  109.53648747   3- 2- 9  109.53648747   5- 1- 6  108.61190457

  5- 1- 7  108.61190457   6- 1- 7  108.12870271   8- 2- 9  110.96453384  10- 8-12  108.52192632

 10- 8-14  108.08997829  11- 9-13  108.52192632  11- 9-15  108.08997829  12- 8-14  107.54424578

 13- 9-15  107.54424578

 NUCLEAR CHARGE:                   42
 NUMBER OF PRIMITIVE AOS:         165
 NUMBER OF SYMMETRY AOS:          160
 NUMBER OF CONTRACTIONS:           90   (  90A   )
 NUMBER OF CORE ORBITALS:           5   (   5A   )
 NUMBER OF VALENCE ORBITALS:       30   (  30A   )


 NUCLEAR REPULSION ENERGY  198.77359127


 Eigenvalues of metric

         1 0.179E-02 0.600E-02 0.603E-02 0.144E-01 0.286E-01 0.297E-01 0.300E-01 0.361E-01


 Contracted 2-electron integrals neglected if value below      1.0D-11
 AO integral compression algorithm  1   Integral accuracy      1.0D-11

     37.487 MB (compressed) written to integral file ( 49.6%)


 NUMBER OF SORTED TWO-ELECTRON INTEGRALS:    8386560.     BUFFER LENGTH:  32768
 NUMBER OF SEGMENTS:   1  SEGMENT LENGTH:    8386560      RECORD LENGTH: 524288

 Memory used in sort:       8.94 MW

 SORT1 READ     9478508. AND WROTE     7931434. INTEGRALS IN     23 RECORDS. CPU TIME:     0.12 SEC, REAL TIME:     0.30 SEC
 SORT2 READ     7931434. AND WROTE     8386560. INTEGRALS IN    143 RECORDS. CPU TIME:     0.25 SEC, REAL TIME:     0.34 SEC

 FILE SIZES:   FILE 1:    68.0 MBYTE,  FILE 4:    96.5 MBYTE,   TOTAL:    164.5 MBYTE

 OPERATOR DM      FOR CENTER  0  COORDINATES:    0.000000    0.000000    0.000000


 **********************************************************************************************************************************
 DATASETS  * FILE   NREC   LENGTH (MB)   RECORD NAMES
              1      19       63.39       500      610      700      900      950      970     1000      129      960     1100   
                                          VAR    BASINP    GEOM    SYMINP    ZMAT    AOBASIS   BASIS     P2S    ABASIS      S 
                                         1400     1410     1200     1210     1080     1600     1650     1300     1700   
                                           T        V       H0       H01     AOSYM     SMH    MOLCAS    ERIS     OPER   

 PROGRAMS   *        TOTAL       INT
 CPU TIMES  *         1.83      1.69
 REAL TIME  *         2.72 SEC
 DISK USED  *       165.03 MB      
 **********************************************************************************************************************************

 Density functional group M06=XC-M06
 Functional: XC-M06(via MFM 1.6)                                               Gradient terms: 1
 Use grid at  1800.2


 Exact exchange will be calculated, factor:  0.2700

 Functional: XC-M06                    Factor:  1.0000

 Generated new metagrid on record  1800.2 with target accuracy 1.0D-06 and 53396 points in CPU time    1.7
 Computed new grid on record 1800.1 in CPU time    1.9
   75909 words reserved for DFT integration

 PROGRAM * RKS-SCF (Restricted closed shell Kohn-Sham)     Authors: W. Meyer, H.-J. Werner, P.J. Knowles, 1993

 NUMBER OF ELECTRONS:      21+   21-    SPACE SYMMETRY=1    SPIN SYMMETRY: Singlet 
 CONVERGENCE THRESHOLDS:    1.00E-05 (Density)    1.00E-06 (Energy)
 MAX. NUMBER OF ITERATIONS:       60
 INTERPOLATION TYPE:            DIIS
 INTERPOLATION STEPS:              2 (START)      1 (STEP)
 LEVEL SHIFTS:                  0.00 (CLOSED)  0.00 (OPEN) 



 Use fine grid record 1800.2 for energy threshold  1.0D-06
 Orbital guess generated from atomic densities. Full valence occupancy:   21

 Molecular orbital dump at record        2100.2

 Initial occupancy:  21

 ITERATION    DDIFF          GRAD             ENERGY        2-EL.EN.            DIPOLE MOMENTS         DIIS   ORB.
    1      0.000D+00      0.000D+00      -233.10285258    618.172278    0.74320   -0.89798    0.00000    0    start
    2      0.000D+00      0.116D-01      -233.02782043    587.528267   -0.01762    0.00499    0.00000    1    diag
    3      0.299D-01      0.139D-01      -233.30353114    604.545441    0.40832   -0.56444    0.00000    2    diag
    4      0.181D-01      0.106D-02      -233.30463463    604.226433    0.39374   -0.47347    0.00000    3    diag
    5      0.123D-02      0.459D-03      -233.30487460    604.228389    0.39891   -0.51271    0.00000    4    diag
    6      0.479D-03      0.872D-04      -233.30488038    604.277908    0.39866   -0.50685    0.00000    5    diag
    7      0.128D-03      0.497D-04      -233.30488367    604.247989    0.39827   -0.50699    0.00000    6    diag
    8      0.454D-04      0.395D-05      -233.30488369    604.247789    0.39838   -0.50756    0.00000    7    diag
    9      0.468D-05      0.585D-06      -233.30488369    604.247627    0.39832   -0.50737    0.00000    0    orth

 Final occupancy:  21

 !RKS STATE 1.1 Energy               -233.304883687847
 Nuclear energy                       198.77359127
 One-electron energy                 -709.12251157
 Two-electron energy                  302.12381351
 SCF exchange energy                  -32.46877981     Factor= 0.2700
 Density functional                   -25.07977691     XC-M06=-25.07977691
 Virial quotient                       -1.00976612
 !RKS STATE 1.1 Dipole moment           0.39832167    -0.50737385     0.00000000
 Dipole moment /Debye                   1.01236639    -1.28953122     0.00000000

 Orbital energies:

         1.1          2.1          3.1          4.1          5.1          6.1          7.1          8.1          9.1         10.1
    -19.196951   -10.303070   -10.232413   -10.232388   -10.226072    -1.024262    -0.790475    -0.694007    -0.692568    -0.573563

        11.1         12.1         13.1         14.1         15.1         16.1         17.1         18.1         19.1         20.1
     -0.497911    -0.460711    -0.458250    -0.420356    -0.407000    -0.388947    -0.375460    -0.364948    -0.358215    -0.329785

        21.1         22.1         23.1
     -0.281018     0.041853     0.088409

 HOMO     21.1    -0.281018 =      -7.6469eV
 LUMO     22.1     0.041853 =       1.1389eV
 LUMO-HOMO         0.322871 =       8.7858eV


 **********************************************************************************************************************************
 DATASETS  * FILE   NREC   LENGTH (MB)   RECORD NAMES
              1      20       65.10       500      610      700      900      950      970     1000      129      960     1100   
                                          VAR    BASINP    GEOM    SYMINP    ZMAT    AOBASIS   BASIS     P2S    ABASIS      S 
                                         1400     1410     1200     1210     1080     1600     1650     1300     1700     1800   
                                           T        V       H0       H01     AOSYM     SMH    MOLCAS    ERIS     OPER     GRID   

              2       5        3.17       700     1000      520     1800     2100   
                                         GEOM     BASIS   MCVARS    GRID      RKS  

 PROGRAMS   *        TOTAL        KS       INT
 CPU TIMES  *        25.33     23.50      1.69
 REAL TIME  *        26.41 SEC
 DISK USED  *       165.03 MB      
 **********************************************************************************************************************************


 PROGRAM * Intrinsic Basis Bonding Analysis (IBBA)          Author: G. Knizia

 Molecular orbitals read from record     2100.2  Type=RKS/CANONICAL (state 1.1)
 Fock matrix read from record            2100.2  Type=RKS/TOTAL (state 1.1)
 Orbital energies read from record       2100.2  Type=RKS/CANONICAL (state 1.1)
 Density matrix read from record         2100.2  Type=RKS/CHARGE (state 1.1)

 Number of core orbitals:           5 (   5 )
 Number of closed-shell orbitals:  16 (  16 )

 Basis set MINAO-AUTO-PP generated.      Number of basis functions:   35 

 Polarized AO type:                A = (O Ot + (1-O)(1-Ot)) P12
 Orthogonalization method:         Symmetric (Loewdin)
 Localization functional:          L = sum[A,i] <i|n_A|i>^4 -> max

 Localization group 1:  21 orbitals, occupancy  2.000
 Iterative localization: IB/PM,    7 iter; Final gradient 0.30E-08

 Bond order analysis:       [THRPRINT= 0.020]

   CEN ATOM   CEN ATOM     WIBERG.BO      RENORM.BO
     1   C  -   2   C       0.994215       0.993358
     1   C  -   5   H       0.966817       0.987853
     1   C  -   6   H       0.962317       0.982583
     1   C  -   7   H       0.962317       0.982583

     2   C  -   1   C       0.994215       0.993358
     2   C  -   9   C       0.993471       0.976111
     2   C  -   8   C       0.993471       0.976111
     2   C  -   3   O       0.934347       0.953244

     3   O  -   2   C       0.934347       0.953244
     3   O  -   4   H       0.875424       0.977777
     3   O  -   9   C       0.026751       0.013711
     3   O  -   8   C       0.026751       0.013711

     4   H  -   3   O       0.875424       0.977777

     5   H  -   1   C       0.966817       0.987853

     6   H  -   1   C       0.962317       0.982583

     7   H  -   1   C       0.962317       0.982583

     8   C  -   2   C       0.993471       0.976111
     8   C  -  14   H       0.966031       0.983196
     8   C  -  12   H       0.962655       0.982931
     8   C  -  10   H       0.962471       0.982289
     8   C  -   3   O       0.026751       0.013711

     9   C  -   2   C       0.993471       0.976111
     9   C  -  15   H       0.966031       0.983196
     9   C  -  13   H       0.962655       0.982931
     9   C  -  11   H       0.962471       0.982289
     9   C  -   3   O       0.026751       0.013711

    10   H  -   8   C       0.962471       0.982289

    11   H  -   9   C       0.962471       0.982289

    12   H  -   8   C       0.962655       0.982931

    13   H  -   9   C       0.962655       0.982931

    14   H  -   8   C       0.966031       0.983196

    15   H  -   9   C       0.966031       0.983196


 Valency analysis:

   CEN ATOM   TOT.VALENCE
     1   C       3.943834
     2   C       3.927743
     3   O       1.926745
     4   H       0.893824
     5   H       0.984960
     6   H       0.982722
     7   H       0.982722
     8   C       3.945542
     9   C       3.945542
    10   H       0.982565
    11   H       0.982565
    12   H       0.984005
    13   H       0.984005
    14   H       0.986359
    15   H       0.986359

 Total charge composition:

   CEN ATOM         s          p       ELECTRONS ->P.CHARGE
     1   C       3.01755    3.36310      6.38066   -0.38066
     2   C       2.91361    2.81698      5.73060    0.26940
     3   O       3.63713    4.91964      8.55677   -0.55677
     4   H       0.67415                 0.67415    0.32585
     5   H       0.87736                 0.87736    0.12264
     6   H       0.86855                 0.86855    0.13145
     7   H       0.86855                 0.86855    0.13145
     8   C       3.02368    3.37330      6.39698   -0.39698
     9   C       3.02368    3.37330      6.39698   -0.39698
    10   H       0.86796                 0.86796    0.13204
    11   H       0.86796                 0.86796    0.13204
    12   H       0.87353                 0.87353    0.12647
    13   H       0.87353                 0.87353    0.12647
    14   H       0.88320                 0.88320    0.11680
    15   H       0.88320                 0.88320    0.11680

 Total charge composition, AO contributions:

   CEN ATOM SHL      SPHERICAL COMPONENTS
     1   C  1s       1.99128
     1   C  2s       1.02627
     1   C  2p       1.04743    1.15218    1.16349

     2   C  1s       1.99288
     2   C  2s       0.92073
     2   C  2p       1.01411    0.78994    1.01293

     3   O  1s       1.99715
     3   O  2s       1.63998
     3   O  2p       1.46370    1.49841    1.95754

     4   H  1s       0.67415

     5   H  1s       0.87736

     6   H  1s       0.86855

     7   H  1s       0.86855

     8   C  1s       1.99138
     8   C  2s       1.03230
     8   C  2p       1.13664    1.13844    1.09823

     9   C  1s       1.99138
     9   C  2s       1.03230
     9   C  2p       1.13664    1.13844    1.09823

    10   H  1s       0.86796

    11   H  1s       0.86796

    12   H  1s       0.87353

    13   H  1s       0.87353

    14   H  1s       0.88320

    15   H  1s       0.88320

 Summary of localized orbital composition:   [THRPRINT= 0.020]

   ORB  GRP  ORB.ENERGY      CENTERS/CHARGES
     1   1   -19.040946      O  3   2.000
     2   1   -10.211853      C  2   2.000
     3   1   -10.118587      C  8   2.000
     4   1   -10.118587      C  9   2.000
     5   1   -10.111445      C  1   2.000
     6   1    -0.773419      O  3   1.328   H  4   0.663
     7   1    -0.733932      O  3   1.286   C  2   0.698
     8   1    -0.584126      C  8   1.011   C  2   0.974
     9   1    -0.584126      C  9   1.011   C  2   0.974
    10   1    -0.582997      C  1   0.991   C  2   0.985   (other: 0.024)
    11   1    -0.570941      O  3   1.982
    12   1    -0.512268      C  8   1.122   H 12   0.864
    13   1    -0.512268      C  9   1.122   H 13   0.864
    14   1    -0.511455      C  9   1.113   H 15   0.876
    15   1    -0.511455      C  8   1.113   H 14   0.876
    16   1    -0.508130      C  1   1.117   H  5   0.870
    17   1    -0.505261      C  8   1.130   H 10   0.860
    18   1    -0.505261      C  9   1.130   H 11   0.860
    19   1    -0.498958      C  1   1.129   H  7   0.861
    20   1    -0.498958      C  1   1.129   H  6   0.861
    21   1    -0.313401      O  3   1.958   (other: 0.042)

 Localized orbitals saved to record      2100.2  (orbital set 2)


 **********************************************************************************************************************************
 DATASETS  * FILE   NREC   LENGTH (MB)   RECORD NAMES
              1      20       65.10       500      610      700      900      950      970     1000      129      960     1100   
                                          VAR    BASINP    GEOM    SYMINP    ZMAT    AOBASIS   BASIS     P2S    ABASIS      S 
                                         1400     1410     1200     1210     1080     1600     1650     1300     1700     1800   
                                           T        V       H0       H01     AOSYM     SMH    MOLCAS    ERIS     OPER     GRID   

              2       5        3.24       700     1000      520     1800     2100   
                                         GEOM     BASIS   MCVARS    GRID      RKS  

 PROGRAMS   *        TOTAL      IBBA        KS       INT
 CPU TIMES  *        25.38      0.05     23.50      1.69
 REAL TIME  *        26.55 SEC
 DISK USED  *       165.03 MB      
 **********************************************************************************************************************************
 Molecular orbitals read from record     2100.2  Type=RKS/LOCAL(IBO)  
 Occupation numbers read from record     2100.2  Type=RKS/LOCAL(IBO)  
 Orbital energies read from record       2100.2  Type=RKS/LOCAL(IBO)  
 Redundancy group numbers read from rec  2100.2  Type=RKS/LOCAL(IBO)  

 IBBA/SV(P) energy=      0.000000000000

        KS-SCF  
   -233.30488369
 **********************************************************************************************************************************
 Molpro calculation terminated
