
 Primary working directories    : /tmp/sb13343
 Secondary working directories  : /tmp/sb13343
 Wavefunction directory         : /panfs/panasas01/chem/sb13343/wfu/
 Main file repository           : /tmp/sb13343/

 SHA1      : b4a5b34a9e711420743f49e6833241d17c61fb3c
 NAME      : 2099.9.b4a5b34
 ARCHNAME  : linux/x86_64_openmp
 FC        : /cm/shared/languages/GCC-6.1/bin/gfortran
 BLASLIB   : -lblas
 id        : simonbennie

 Nodes     nprocs
 node32-018    1

 Using customized tuning parameters: mindgm=1; mindgv=20; mindgc=4; mindgr=1; noblas=0; minvec=7
 default implementation of scratch files=df  

 memory,500,m
 geomtyp=xyz
 nosym
 noorient
 geometry={
 H         -1.13405        1.76167        0.00000
 C         -1.32915        0.67205        0.00000
 C         -0.06360       -0.12883        0.00000
 C          0.67426       -0.31636        1.28970
 C          0.67426       -0.31636       -1.28970
 H         -1.94006        0.46750        0.88859
 H         -1.94006        0.46750       -0.88859
 H          1.28359        0.56876        1.55544
 H         -0.01165       -0.48291        2.13019
 H          1.36783       -1.16569        1.24157
 H          1.28359        0.56876       -1.55544
 H         -0.01165       -0.48291       -2.13019
 H          1.36783       -1.16569       -1.24157
 }
 basis={ default,svp }
 {ks,M06-L,direct;wf,33,1,1}
 {ibba,bonds=1}

 Variables initialized (895), CPU time= 0.01 sec
 Commands  initialized (725), CPU time= 0.01 sec, 591 directives.
 Default parameters read. Elapsed time= 0.07 sec

 Checking input...
 Passed
1


                                         ***  PROGRAM SYSTEM MOLPRO  ***
                                       Copyright, TTI GmbH Stuttgart, 2015
                                    Version 2099.9 linked May 26 2017 16:03:21


 **********************************************************************************************************************************
 LABEL *                                                                                 
  64 bit serial version                                                                  DATE: 08-Jun-17          TIME: 20:48:25  
 **********************************************************************************************************************************

 SHA1:             b4a5b34a9e711420743f49e6833241d17c61fb3c
 **********************************************************************************************************************************
 SETTING GEOMTYP        =    XYZ

 Variable memory set to  500000000 words,  buffer space 

 ZSYMEL=NOSYM

 SETTING BASIS          =    SVP


 Recomputing integrals since basis changed


 Using spherical harmonics

 Library entry H      S def2-SVP             selected for orbital group  1
 Library entry H      P def2-SVP             selected for orbital group  1
 Library entry C      S def2-SVP             selected for orbital group  2
 Library entry C      P def2-SVP             selected for orbital group  2
 Library entry C      D def2-SVP             selected for orbital group  2


 PROGRAM * SEWARD (Integral evaluation for generally contracted gaussian basis sets)     Author: Roland Lindh, 1990

 Geometry written to block  1 of record 700


 Point group  C1  



 ATOMIC COORDINATES

 NR  ATOM    CHARGE       X              Y              Z

   1  H       1.00   -2.143043912    3.329073822    0.000000000
   2  C       6.00   -2.511729478    1.269990442    0.000000000
   3  C       6.00   -0.120186582   -0.243453417    0.000000000
   4  C       6.00    1.274166737   -0.597833757    2.437179783
   5  C       6.00    1.274166737   -0.597833757   -2.437179783
   6  H       1.00   -3.666182065    0.883446963    1.679191737
   7  H       1.00   -3.666182065    0.883446963   -1.679191737
   8  H       1.00    2.425633556    1.074800631    2.939355603
   9  H       1.00   -0.022015309   -0.912567643    4.025475693
  10  H       1.00    2.584824085   -2.202834846    2.346227264
  11  H       1.00    2.425633556    1.074800631   -2.939355603
  12  H       1.00   -0.022015309   -0.912567643   -4.025475693
  13  H       1.00    2.584824085   -2.202834846   -2.346227264

 Bond lengths in Bohr (Angstrom)

 1-2  2.091830159  2-3  2.830192527  2-6  2.074092940  2-7  2.074092940  3-4  2.830132841
     ( 1.106948849)     ( 1.497673388)     ( 1.097562717)     ( 1.097562717)     ( 1.497641803)

  3- 5  2.830132841   4- 8  2.091832255   4- 9  2.074085151   4-10  2.074156104   5-11  2.091832255
       ( 1.497641803)       ( 1.106949959)       ( 1.097558596)       ( 1.097596142)       ( 1.106949959)

  5-12  2.074085151   5-13  2.074156104
       ( 1.097558596)       ( 1.097596142)

 Bond angles

  1-2-3  112.17549786   1-2-6  106.35284965   1-2-7  106.35284965   2-3-4  118.89987932

  2-3-5  118.89987932   3-2-6  111.75744418   3-2-7  111.75744418   3-4-8  112.19808176

  3- 4- 9  111.75014522   3- 4-10  111.74379558   3- 5-11  112.19808176   3- 5-12  111.75014522

  3- 5-13  111.74379558   4- 3- 5  118.89276928   6- 2- 7  108.11431090   8- 4- 9  106.34995457

  8- 4-10  106.34572146   9- 4-10  108.12296896  11- 5-12  106.34995457  11- 5-13  106.34572146

 12- 5-13  108.12296896

 NUCLEAR CHARGE:                   33
 NUMBER OF PRIMITIVE AOS:         163
 NUMBER OF SYMMETRY AOS:          159
 NUMBER OF CONTRACTIONS:          101   ( 101A   )
 NUMBER OF CORE ORBITALS:           4   (   4A   )
 NUMBER OF VALENCE ORBITALS:       25   (  25A   )


 NUCLEAR REPULSION ENERGY  124.92676597


 Eigenvalues of metric

         1 0.371E-02 0.424E-02 0.424E-02 0.242E-01 0.242E-01 0.268E-01 0.277E-01 0.371E-01


 Contracted 2-electron integrals neglected if value below      1.0D-11
 AO integral compression algorithm  1   Integral accuracy      1.0D-11

     53.477 MB (compressed) written to integral file ( 46.4%)


 NUMBER OF SORTED TWO-ELECTRON INTEGRALS:   13268976.     BUFFER LENGTH:  32768
 NUMBER OF SEGMENTS:   1  SEGMENT LENGTH:   13268976      RECORD LENGTH: 524288

 Memory used in sort:      13.83 MW

 SORT1 READ    14422061. AND WROTE    12225547. INTEGRALS IN     35 RECORDS. CPU TIME:     0.15 SEC, REAL TIME:     0.34 SEC
 SORT2 READ    12225547. AND WROTE    13268976. INTEGRALS IN    204 RECORDS. CPU TIME:     0.35 SEC, REAL TIME:     0.42 SEC

 FILE SIZES:   FILE 1:    84.0 MBYTE,  FILE 4:   146.8 MBYTE,   TOTAL:    230.9 MBYTE

 OPERATOR DM      FOR CENTER  0  COORDINATES:    0.000000    0.000000    0.000000


 **********************************************************************************************************************************
 DATASETS  * FILE   NREC   LENGTH (MB)   RECORD NAMES
              1      19       77.16       500      610      700      900      950      970     1000      129      960     1100   
                                          VAR    BASINP    GEOM    SYMINP    ZMAT    AOBASIS   BASIS     P2S    ABASIS      S 
                                         1400     1410     1200     1210     1080     1600     1650     1300     1700   
                                           T        V       H0       H01     AOSYM     SMH    MOLCAS    ERIS     OPER   

 PROGRAMS   *        TOTAL       INT
 CPU TIMES  *         2.23      2.09
 REAL TIME  *         3.71 SEC
 DISK USED  *       231.35 MB      
 **********************************************************************************************************************************

 Density functional group M06-L=XC-M06-L
 Functional: XC-M06-L(via MFM 1.6)                                             Gradient terms: 1
 Use grid at  1800.2

 Functional: XC-M06-L                  Factor:  1.0000

 Generated new metagrid on record  1800.2 with target accuracy 1.0D-06 and 45406 points in CPU time    1.3
 Computed new grid on record 1800.1 in CPU time    1.4
   84355 words reserved for DFT integration

 PROGRAM * RKS-SCF (Restricted open shell Kohn-Sham)     Authors: W. Meyer, H.-J. Werner, P.J. Knowles, 1993

 NUMBER OF ELECTRONS:      17+   16-    SPACE SYMMETRY=1    SPIN SYMMETRY: Doublet 
 CONVERGENCE THRESHOLDS:    1.00E-05 (Density)    1.00E-06 (Energy)
 MAX. NUMBER OF ITERATIONS:       60
 INTERPOLATION TYPE:            DIIS
 INTERPOLATION STEPS:              2 (START)      1 (STEP)
 LEVEL SHIFTS:                 -0.60 (CLOSED) -0.30 (OPEN) 



 Use fine grid record 1800.2 for energy threshold  1.0D-06
 Orbital guess generated from atomic densities. Full valence occupancy:   17

 Molecular orbital dump at record        2100.2

 Initial alpha occupancy:  17
 Initial beta  occupancy:  16
 Wave function symmetry:    1

 ITERATION    DDIFF          GRAD             ENERGY        2-EL.EN.            DIPOLE MOMENTS         DIIS   ORB.
    1      0.000D+00      0.000D+00      -157.45745613    412.192493    0.12979    0.26222    0.00000    0    start
    2      0.000D+00      0.107D-01      -157.63666880    397.158511    0.02921    0.06674    0.00000    1    diag,B
    3      0.119D-01      0.359D-02      -157.65421245    400.234751    0.05454    0.11622    0.00000    2    diag,B
    4      0.309D-02      0.498D-03      -157.65494826    399.950578    0.04746    0.10193    0.00000    3    diag,B
    5      0.939D-03      0.215D-03      -157.65511064    399.941289    0.04789    0.10328    0.00000    4    diag,B
    6      0.441D-03      0.779D-04      -157.65514174    399.902370    0.04588    0.09957    0.00000    5    diag,B
    7      0.263D-03      0.158D-04      -157.65514328    399.899547    0.04583    0.09957    0.00000    6    fixocc
    8      0.575D-04      0.499D-05      -157.65514346    399.899890    0.04573    0.09939    0.00000    7    diag,B
    9      0.229D-04      0.128D-05      -157.65514347    399.899970    0.04576    0.09945    0.00000    8    diag,B
   10      0.665D-05      0.394D-06      -157.65514347    399.899976    0.04576    0.09944    0.00000    0    orth

 Final alpha occupancy:  17
 Final beta  occupancy:  16

 !RKS STATE 1.1 Energy               -157.655143471960
 Nuclear energy                       124.92676597
 One-electron energy                 -457.51909574
 Two-electron energy                  199.94998823
 Density functional                   -25.01280193     XC-M06-L=-25.01280193
 Virial quotient                       -1.01221732
 !RKS STATE 1.1 Dipole moment           0.04575679     0.09943598     0.00000000
 Dipole moment /Debye                   0.11629455     0.25272451     0.00000000

 Orbital energies:

         1.1          2.1          3.1          4.1          5.1          6.1          7.1          8.1          9.1         10.1
    -10.052130   -10.051793   -10.051233   -10.051224    -0.744863    -0.642121    -0.641793    -0.483832    -0.397856    -0.397703

        11.1         12.1         13.1         14.1         15.1         16.1         17.1         18.1         19.1
     -0.391822    -0.345319    -0.345153    -0.328850    -0.307041    -0.307039    -0.144367     0.074972     0.115566

 HOMO     17.1    -0.144367 =      -3.9284eV
 LUMO     18.1     0.074972 =       2.0401eV
 LUMO-HOMO         0.219339 =       5.9685eV


 **********************************************************************************************************************************
 DATASETS  * FILE   NREC   LENGTH (MB)   RECORD NAMES
              1      20       78.61       500      610      700      900      950      970     1000      129      960     1100   
                                          VAR    BASINP    GEOM    SYMINP    ZMAT    AOBASIS   BASIS     P2S    ABASIS      S 
                                         1400     1410     1200     1210     1080     1600     1650     1300     1700     1800   
                                           T        V       H0       H01     AOSYM     SMH    MOLCAS    ERIS     OPER     GRID   

              2       5        3.26       700     1000      520     1800     2100   
                                         GEOM     BASIS   MCVARS    GRID      RKS  

 PROGRAMS   *        TOTAL        KS       INT
 CPU TIMES  *        37.02     34.79      2.09
 REAL TIME  *        38.68 SEC
 DISK USED  *       231.35 MB      
 **********************************************************************************************************************************


 PROGRAM * Intrinsic Basis Bonding Analysis (IBBA)          Author: G. Knizia

 Molecular orbitals read from record     2100.2  Type=RKS/CANONICAL (state 1.1)
 Fock matrix read from record            2100.2  Type=RKS/TOTAL (state 1.1)
 Orbital energies read from record       2100.2  Type=RKS/CANONICAL (state 1.1)
 Density matrix read from record         2100.2  Type=RKS/CHARGE (state 1.1)

 Number of core orbitals:           4 (   4 )
 Number of closed-shell orbitals:  12 (  12 )
 Number of active  orbitals:        1 (   1 )

 Basis set MINAO-AUTO-PP generated.      Number of basis functions:   29 

 Polarized AO type:                A = (O Ot + (1-O)(1-Ot)) P12
 Orthogonalization method:         Symmetric (Loewdin)
 Localization functional:          L = sum[A,i] <i|n_A|i>^4 -> max

 Localization group 1:  16 orbitals, occupancy  2.000
 Iterative localization: IB/PM,    7 iter; Final gradient 0.42E-08

 Bond order analysis:       [THRPRINT= 0.020]

   CEN ATOM   CEN ATOM     WIBERG.BO      RENORM.BO
     1   H  -   2   C       0.923349       0.998334
     1   H  -   3   C       0.034815       0.198963

     2   C  -   3   C       1.076037       1.318262
     2   C  -   6   H       0.955181       0.987094
     2   C  -   7   H       0.955181       0.987094
     2   C  -   1   H       0.923349       0.998334

     3   C  -   2   C       1.076037       1.318262
     3   C  -   5   C       1.075392       1.316172
     3   C  -   4   C       1.075392       1.316172
     3   C  -   1   H       0.034815       0.198963
     3   C  -  11   H       0.034778       0.198708
     3   C  -   8   H       0.034778       0.198708

     4   C  -   3   C       1.075392       1.316172
     4   C  -  10   H       0.955552       0.987115
     4   C  -   9   H       0.955368       0.987104
     4   C  -   8   H       0.923521       0.998353

     5   C  -   3   C       1.075392       1.316172
     5   C  -  13   H       0.955552       0.987115
     5   C  -  12   H       0.955368       0.987104
     5   C  -  11   H       0.923521       0.998353

     6   H  -   2   C       0.955181       0.987094

     7   H  -   2   C       0.955181       0.987094

     8   H  -   4   C       0.923521       0.998353
     8   H  -   3   C       0.034778       0.198708

     9   H  -   4   C       0.955368       0.987104

    10   H  -   4   C       0.955552       0.987115

    11   H  -   5   C       0.923521       0.998353
    11   H  -   3   C       0.034778       0.198708

    12   H  -   5   C       0.955368       0.987104

    13   H  -   5   C       0.955552       0.987115


 Valency analysis:

   CEN ATOM   TOT.VALENCE
     1   H       0.968921
     2   C       3.943347
     3   C       3.374459
     4   C       3.943468
     5   C       3.943468
     6   H       0.979661
     7   H       0.979661
     8   H       0.968991
     9   H       0.979771
    10   H       0.979762
    11   H       0.968991
    12   H       0.979771
    13   H       0.979762
 Localization group 2:   1 orbitals, occupancy  1.000
 Iterative localization: IB/PM,    1 iter; Final gradient 0.00E+00

 Bond order analysis:       [THRPRINT= 0.020]

   CEN ATOM   CEN ATOM     WIBERG.BO      RENORM.BO
     1   H  -   3   C       0.076869       0.500000


     3   C  -   1   H       0.076869       0.500000
     3   C  -  11   H       0.076669       0.500000
     3   C  -   8   H       0.076669       0.500000





     8   H  -   3   C       0.076669       0.500000



    11   H  -   3   C       0.076669       0.500000




 Valency analysis:

   CEN ATOM   TOT.VALENCE
     1   H       0.091405
     2   C       0.002426
     3   C       0.319282
     4   C       0.002492
     5   C       0.002492
     6   H       0.017249
     7   H       0.017249
     8   H       0.091179
     9   H       0.017232
    10   H       0.016991
    11   H       0.091179
    12   H       0.017232
    13   H       0.016991

 Total charge composition:

   CEN ATOM         s          p       ELECTRONS ->P.CHARGE
     1   H       0.87172                 0.87172    0.12828
     2   C       3.02883    3.37698      6.40581   -0.40581
     3   C       2.97266    2.99627      5.96893    0.03107
     4   C       3.02902    3.37710      6.40612   -0.40612
     5   C       3.02902    3.37710      6.40612   -0.40612
     6   H       0.86609                 0.86609    0.13391
     7   H       0.86609                 0.86609    0.13391
     8   H       0.87179                 0.87179    0.12821
     9   H       0.86646                 0.86646    0.13354
    10   H       0.86631                 0.86631    0.13369
    11   H       0.87179                 0.87179    0.12821
    12   H       0.86646                 0.86646    0.13354
    13   H       0.86631                 0.86631    0.13369

 Total charge composition, AO contributions:

   CEN ATOM SHL      SPHERICAL COMPONENTS
     1   H  1s       0.87172

     2   C  1s       1.99059
     2   C  2s       1.03825
     2   C  2p       1.09420    1.12597    1.15681

     3   C  1s       1.99238
     3   C  2s       0.98029
     3   C  2p       0.99815    1.00051    0.99761

     4   C  1s       1.99059
     4   C  2s       1.03843
     4   C  2p       1.13445    1.14838    1.09426

     5   C  1s       1.99059
     5   C  2s       1.03843
     5   C  2p       1.13445    1.14838    1.09426

     6   H  1s       0.86609

     7   H  1s       0.86609

     8   H  1s       0.87179

     9   H  1s       0.86646

    10   H  1s       0.86631

    11   H  1s       0.87179

    12   H  1s       0.86646

    13   H  1s       0.86631

 Active orbital charges:

   CEN ATOM         s          p       ELECTRONS ->SPIN.DEN
     1   H       0.04801                 0.04801    0.04801
     2   C       0.00018    0.00104      0.00121    0.00121
     3   C       0.01657    0.78403      0.80060    0.80060
     4   C       0.00018    0.00107      0.00125    0.00125
     5   C       0.00018    0.00107      0.00125    0.00125
     6   H       0.00870                 0.00870    0.00870
     7   H       0.00870                 0.00870    0.00870
     8   H       0.04788                 0.04788    0.04788
     9   H       0.00869                 0.00869    0.00869
    10   H       0.00857                 0.00857    0.00857
    11   H       0.04788                 0.04788    0.04788
    12   H       0.00869                 0.00869    0.00869
    13   H       0.00857                 0.00857    0.00857

 Active orbital charges, AO contributions:

   CEN ATOM SHL      SPHERICAL COMPONENTS
     1   H  1s       0.04801

     2   C  1s       0.00000
     2   C  2s       0.00018
     2   C  2p       0.00003    0.00101    0.00000

     3   C  1s       0.00001
     3   C  2s       0.01655
     3   C  2p       0.15450    0.62953    0.00000

     4   C  1s       0.00000
     4   C  2s       0.00018
     4   C  2p       0.00042    0.00036    0.00029

     5   C  1s       0.00000
     5   C  2s       0.00018
     5   C  2p       0.00042    0.00036    0.00029

     6   H  1s       0.00870

     7   H  1s       0.00870

     8   H  1s       0.04788

     9   H  1s       0.00869

    10   H  1s       0.00857

    11   H  1s       0.04788

    12   H  1s       0.00869

    13   H  1s       0.00857

 Summary of localized orbital composition:   [THRPRINT= 0.020]

   ORB  GRP  ORB.ENERGY      CENTERS/CHARGES
     1   1    -9.957771      C  3   2.000
     2   1    -9.935770      C  2   2.000
     3   1    -9.935193      C  5   2.000
     4   1    -9.935193      C  4   2.000
     5   1    -0.555356      C  2   1.011   C  3   0.976
     6   1    -0.555090      C  4   1.012   C  3   0.975
     7   1    -0.555090      C  5   1.012   C  3   0.975
     8   1    -0.459277      C  2   1.126   H  1   0.820   C  3   0.051
     9   1    -0.459171      C  5   1.126   H 11   0.821   C  3   0.051
    10   1    -0.459171      C  4   1.126   H  8   0.821   C  3   0.051
    11   1    -0.455862      C  2   1.130   H  7   0.851
    12   1    -0.455862      C  2   1.130   H  6   0.851
    13   1    -0.455255      C  5   1.130   H 13   0.852
    14   1    -0.455255      C  4   1.130   H 10   0.852
    15   1    -0.455228      C  4   1.129   H  9   0.852
    16   1    -0.455228      C  5   1.129   H 12   0.852
    17   2    -0.091889      C  3   0.801   H  1   0.048   H 11   0.048   H  8   0.048   (other: 0.056)

 Localized orbitals saved to record      2100.2  (orbital set 2)


 **********************************************************************************************************************************
 DATASETS  * FILE   NREC   LENGTH (MB)   RECORD NAMES
              1      20       78.61       500      610      700      900      950      970     1000      129      960     1100   
                                          VAR    BASINP    GEOM    SYMINP    ZMAT    AOBASIS   BASIS     P2S    ABASIS      S 
                                         1400     1410     1200     1210     1080     1600     1650     1300     1700     1800   
                                           T        V       H0       H01     AOSYM     SMH    MOLCAS    ERIS     OPER     GRID   

              2       5        3.34       700     1000      520     1800     2100   
                                         GEOM     BASIS   MCVARS    GRID      RKS  

 PROGRAMS   *        TOTAL      IBBA        KS       INT
 CPU TIMES  *        37.05      0.02     34.79      2.09
 REAL TIME  *        38.80 SEC
 DISK USED  *       231.35 MB      
 **********************************************************************************************************************************
 Molecular orbitals read from record     2100.2  Type=RKS/LOCAL(IBO)  
 Occupation numbers read from record     2100.2  Type=RKS/LOCAL(IBO)  
 Orbital energies read from record       2100.2  Type=RKS/LOCAL(IBO)  
 Redundancy group numbers read from rec  2100.2  Type=RKS/LOCAL(IBO)  

 IBBA/SVP energy=      0.000000000000

        KS-SCF  
   -157.65514347
 **********************************************************************************************************************************
 Molpro calculation terminated
