
 Primary working directories    : /tmp/sb13343
 Secondary working directories  : /tmp/sb13343
 Wavefunction directory         : /panfs/panasas01/chem/sb13343/wfu/
 Main file repository           : /tmp/sb13343/

 SHA1      : b4a5b34a9e711420743f49e6833241d17c61fb3c
 NAME      : 2099.9.b4a5b34
 ARCHNAME  : linux/x86_64_openmp
 FC        : /cm/shared/languages/GCC-6.1/bin/gfortran
 BLASLIB   : -lblas
 id        : simonbennie

 Nodes     nprocs
 node32-027    1

 Using customized tuning parameters: mindgm=1; mindgv=20; mindgc=4; mindgr=1; noblas=0; minvec=7
 default implementation of scratch files=df  

 memory,500,m
 geomtyp=xyz
 nosym
 noorient
 geometry={
 C          0.00000        0.00000        0.00000
 C          1.54025       -0.00009       -0.00004
 C         -0.51333        1.45219       -0.00005
 C         -0.51349       -0.72611       -1.25756
 C         -0.51342       -0.72599        1.25765
 H         -1.60999        1.48489       -0.00002
 H         -1.61015       -0.74237       -1.28580
 H         -1.61008       -0.74225        1.28596
 H         -0.16312        1.99638        0.88591
 H         -0.16316        1.99630       -0.88608
 H         -0.16333       -0.23096       -2.17186
 H         -0.16339       -1.76551       -1.28580
 H         -0.16332       -1.76539        1.28596
 H         -0.16320       -0.23077        2.17189
 H          1.93652       -1.02316       -0.00001
 H          1.93658        0.51138       -0.88607
 H          1.93663        0.51146        0.88592
 }
 basis={ default,sto-3g }
 {uks,PBE0MOL,direct;wf,42,1,0}
 {ibba,bonds=1}

 Variables initialized (895), CPU time= 0.00 sec
 Commands  initialized (725), CPU time= 0.01 sec, 591 directives.
 Default parameters read. Elapsed time= 0.07 sec

 Checking input...
 Passed
1


                                         ***  PROGRAM SYSTEM MOLPRO  ***
                                       Copyright, TTI GmbH Stuttgart, 2015
                                    Version 2099.9 linked May 26 2017 16:03:21


 **********************************************************************************************************************************
 LABEL *                                                                                 
  64 bit serial version                                                                  DATE: 08-Jun-17          TIME: 22:11:40  
 **********************************************************************************************************************************

 SHA1:             b4a5b34a9e711420743f49e6833241d17c61fb3c
 **********************************************************************************************************************************
 SETTING GEOMTYP        =    XYZ

 Variable memory set to  500000000 words,  buffer space 

 ZSYMEL=NOSYM

 SETTING BASIS          =    STO-3G


 Recomputing integrals since basis changed


 Using spherical harmonics

 Library entry C      S STO-3G               selected for orbital group  1
 Library entry C      P STO-3G               selected for orbital group  1
 Library entry H      S STO-3G               selected for orbital group  2


 PROGRAM * SEWARD (Integral evaluation for generally contracted gaussian basis sets)     Author: Roland Lindh, 1990

 Geometry written to block  1 of record 700


 Point group  C1  



 ATOMIC COORDINATES

 NR  ATOM    CHARGE       X              Y              Z

   1  C       6.00    0.000000000    0.000000000    0.000000000
   2  C       6.00    2.910650663   -0.000170075   -0.000075589
   3  C       6.00   -0.970053112    2.744241381   -0.000094486
   4  C       6.00   -0.970355468   -1.372149036   -2.376443985
   5  C       6.00   -0.970223187   -1.371922269    2.376614061
   6  H       1.00   -3.042440163    2.806035425   -0.000037795
   7  H       1.00   -3.042742519   -1.402875983   -2.429809851
   8  H       1.00   -3.042610239   -1.402649216    2.430112207
   9  H       1.00   -0.308252125    3.772611441    1.674127271
  10  H       1.00   -0.308327714    3.772460262   -1.674448524
  11  H       1.00   -0.308648968   -0.436451146   -4.104220581
  12  H       1.00   -0.308762351   -3.336330370   -2.429809851
  13  H       1.00   -0.308630071   -3.336103603    2.430112207
  14  H       1.00   -0.308403304   -0.436092098    4.104277273
  15  H       1.00    3.659492435   -1.933492182   -0.000018897
  16  H       1.00    3.659605818    0.966368146   -1.674429627
  17  H       1.00    3.659700305    0.966519324    1.674146168

 Bond lengths in Bohr (Angstrom)

  1- 2  2.910650669   1- 3  2.910646630   1- 4  2.910647475   1- 5  2.910635350   2-15  2.073282028
       ( 1.540250003)       ( 1.540247866)       ( 1.540248313)       ( 1.540241896)       ( 1.097133601)

  2-16  2.073304464   2-17  2.073302258   3- 6  2.073308129   3- 9  2.073293037   3-10  2.073300754
       ( 1.097145474)       ( 1.097144306)       ( 1.097147413)       ( 1.097139427)       ( 1.097143510)

  4- 7  2.073301752   4-11  2.073306055   4-12  2.073297296   5- 8  2.073305161   5-13  2.073300706
       ( 1.097144038)       ( 1.097146316)       ( 1.097141681)       ( 1.097145842)       ( 1.097143485)

  5-14  2.073307464
       ( 1.097147061)

 Bond angles

  1- 2-15  111.17643746   1- 2-16  111.17582452   1- 2-17  111.17607088   1- 3- 6  111.17575783

  1- 3- 9  111.17644989   1- 3-10  111.17611121   1- 4- 7  111.17614317   1- 4-11  111.17631877

  1- 4-12  111.17675056   1- 5- 8  111.17663037   1- 5-13  111.17645588   1- 5-14  111.17672823

  2-1-3  109.47117711   2-1-4  109.47117360   2-1-5  109.47107360   3-1-4  109.47144919

  3- 1- 5  109.47121161   4- 1- 5  109.47123870   6- 3- 9  107.71338639   6- 3-10  107.71391335

  7- 4-11  107.71323113   7- 4-12  107.71354587   8- 5-13  107.71328790   8- 5-14  107.71342022

  9- 3-10  107.71420977  11- 4-12  107.71378459  13- 5-14  107.71321488  15- 2-16  107.71365571

 15- 2-17  107.71411853  16- 2-17  107.71372051

 NUCLEAR CHARGE:                   42
 NUMBER OF PRIMITIVE AOS:         111
 NUMBER OF SYMMETRY AOS:          111
 NUMBER OF CONTRACTIONS:           37   (  37A   )
 NUMBER OF CORE ORBITALS:           5   (   5A   )
 NUMBER OF VALENCE ORBITALS:       32   (  32A   )


 NUCLEAR REPULSION ENERGY  197.66618863


 Eigenvalues of metric

         1 0.202E+00 0.229E+00 0.229E+00 0.229E+00 0.312E+00 0.362E+00 0.362E+00 0.362E+00


 Contracted 2-electron integrals neglected if value below      1.0D-11
 AO integral compression algorithm  1   Integral accuracy      1.0D-11

     2.097 MB (compressed) written to integral file ( 90.5%)


 NUMBER OF SORTED TWO-ELECTRON INTEGRALS:     247456.     BUFFER LENGTH:  32768
 NUMBER OF SEGMENTS:   1  SEGMENT LENGTH:     247456      RECORD LENGTH: 524288

 Memory used in sort:       0.80 MW

 SORT1 READ      274857. AND WROTE      242287. INTEGRALS IN      1 RECORDS. CPU TIME:     0.00 SEC, REAL TIME:     0.01 SEC
 SORT2 READ      242287. AND WROTE      247456. INTEGRALS IN      8 RECORDS. CPU TIME:     0.03 SEC, REAL TIME:     0.02 SEC

 FILE SIZES:   FILE 1:    32.4 MBYTE,  FILE 4:     4.2 MBYTE,   TOTAL:     36.6 MBYTE

 OPERATOR DM      FOR CENTER  0  COORDINATES:    0.000000    0.000000    0.000000


 **********************************************************************************************************************************
 DATASETS  * FILE   NREC   LENGTH (MB)   RECORD NAMES
              1      19       31.36       500      610      700      900      950      970     1000      129      960     1100   
                                          VAR    BASINP    GEOM    SYMINP    ZMAT    AOBASIS   BASIS     P2S    ABASIS      S 
                                         1400     1410     1200     1210     1080     1600     1650     1300     1700   
                                           T        V       H0       H01     AOSYM     SMH    MOLCAS    ERIS     OPER   

 PROGRAMS   *        TOTAL       INT
 CPU TIMES  *         0.62      0.48
 REAL TIME  *         0.91 SEC
 DISK USED  *        37.15 MB      
 **********************************************************************************************************************************

 Density functional group PBE0MOL=PBEX+PW91C
 Functional: PBEX(Automatically generated (new) PBEX)                          Gradient terms: 1
 Functional: PW91C(Automatically generated (new) PW91C)                        Gradient terms: 1
 Use grid at  1800.2


 Exact exchange will be calculated, factor:  0.2500

 Functional: PBEX                      Factor:  0.7500
 Functional: PW91C                     Factor:  1.0000

 Generated new metagrid on record  1800.2 with target accuracy 1.0D-06 and 57016 points in CPU time    1.7
 Computed new grid on record 1800.1 in CPU time    1.9
   34023 words reserved for DFT integration

 PROGRAM * UKS-SCF (Unrestricted Kohn-Sham)     Authors: W. Meyer, H.-J. Werner, P.J. Knowles, 1993

 NUMBER OF ELECTRONS:      21+   21-    SPACE SYMMETRY=1    SPIN SYMMETRY: Singlet 
 CONVERGENCE THRESHOLDS:    1.00E-05 (Density)    1.00E-06 (Energy)
 MAX. NUMBER OF ITERATIONS:       60
 INTERPOLATION TYPE:            DIIS
 INTERPOLATION STEPS:              2 (START)      1 (STEP)
 LEVEL SHIFTS:                 -0.20 (ALPHA)  -0.20 (BETA) 



 Use fine grid record 1800.2 for energy threshold  1.0D-06
 Orbital guess generated from atomic densities. Full valence occupancy:   21

 Molecular orbital dump at record        2200.2

 Initial alpha occupation  21
 Initial beta  occupation  21

 ITERATION    DDIFF          GRAD             ENERGY        2-EL.EN.            DIPOLE MOMENTS         DIIS
    1      0.000D+00      0.000D+00      -194.93910273    586.107753   -0.00001   -0.00008   -0.00000    0
    2      0.545D-01      0.195D-01      -195.27841795    567.846780    0.00001   -0.00006   -0.00000    1
    3      0.673D-02      0.294D-02      -195.28530628    569.931001   -0.00000   -0.00007   -0.00000    2
    4      0.774D-03      0.301D-03      -195.28542466    569.929526   -0.00000   -0.00007   -0.00000    3
    5      0.236D-03      0.695D-04      -195.28543211    569.924743   -0.00000   -0.00007   -0.00000    4
    6      0.319D-04      0.109D-04      -195.28543227    569.925043   -0.00000   -0.00007   -0.00000    4
    7      0.100D-04      0.340D-05      -195.28543228    569.924752   -0.00000   -0.00007   -0.00000    5
    8      0.143D-05      0.603D-06      -195.28543228    569.924929   -0.00000   -0.00007   -0.00000    5
    9      0.201D-06      0.645D-07      -195.28543228    569.924880   -0.00000   -0.00007   -0.00000    5

 Final alpha occupancy:  21
 Final beta  occupancy:  21

 !UKS STATE 1.1 Energy               -195.285432282344
 Nuclear energy                       197.66618863
 One-electron energy                 -653.96387598
 Two-electron energy                  284.96244012
 Density functional                   -23.95018506     PBEX=-29.98393322 PW91C= -1.46223515
 Virial quotient                       -1.01610519
 !UKS STATE 1.1 Dipole moment          -0.00000241    -0.00006547    -0.00000061
 Dipole moment /Debye                  -0.00000611    -0.00016639    -0.00000155

 Orbital energies for positive spin:

         1.1          2.1          3.1          4.1          5.1          6.1          7.1          8.1          9.1         10.1
    -10.073227   -10.039562   -10.039559   -10.039557   -10.039365    -0.801050    -0.664162    -0.664161    -0.664159    -0.511790

        11.1         12.1         13.1         14.1         15.1         16.1         17.1         18.1         19.1         20.1
     -0.421918    -0.421917    -0.421909    -0.372578    -0.372578    -0.336584    -0.336584    -0.336582    -0.284998    -0.284997

        21.1         22.1         23.1
     -0.284996     0.378291     0.378293

 Orbital energies for negative spin:

         1.1          2.1          3.1          4.1          5.1          6.1          7.1          8.1          9.1         10.1
    -10.073227   -10.039563   -10.039559   -10.039557   -10.039365    -0.801050    -0.664162    -0.664161    -0.664159    -0.511790

        11.1         12.1         13.1         14.1         15.1         16.1         17.1         18.1         19.1         20.1
     -0.421918    -0.421917    -0.421909    -0.372578    -0.372578    -0.336584    -0.336584    -0.336582    -0.284998    -0.284997

        21.1         22.1         23.1
     -0.284996     0.378291     0.378293

 HOMO     21.1    -0.284996 =      -7.7551eV
 LUMO     22.1     0.378291 =      10.2938eV
 LUMO-HOMO         0.663287 =      18.0490eV

 EXPECTATION VALUE OF S**2:            -0.00000000

 Natural orbitals saved to record    2200.2 (Orbital set 3)

 Orbital spaces for UNO-CAS (Min. occupation: 0.020  Max. occupation: 1.980):

 Closed:       21
 Active:        0


 **********************************************************************************************************************************
 DATASETS  * FILE   NREC   LENGTH (MB)   RECORD NAMES
              1      20       33.19       500      610      700      900      950      970     1000      129      960     1100   
                                          VAR    BASINP    GEOM    SYMINP    ZMAT    AOBASIS   BASIS     P2S    ABASIS      S 
                                         1400     1410     1200     1210     1080     1600     1650     1300     1700     1800   
                                           T        V       H0       H01     AOSYM     SMH    MOLCAS    ERIS     OPER     GRID   

              2       5        3.10       700     1000      520     1800     2200   
                                         GEOM     BASIS   MCVARS    GRID      UKS  

 PROGRAMS   *        TOTAL       UKS       INT
 CPU TIMES  *         6.75      6.13      0.48
 REAL TIME  *         7.16 SEC
 DISK USED  *        37.15 MB      
 **********************************************************************************************************************************


 PROGRAM * Intrinsic Basis Bonding Analysis (IBBA)          Author: G. Knizia

 Molecular orbitals read from record     2200.2  Type=UKS/ALPHA (state 1.1)
 Fock matrix read from record            2200.2  Type=UKS/TOTAL (state 1.1)
 Orbital energies read from record       2200.2  Type=UKS/ALPHA (state 1.1)
 Density matrix read from record         2200.2  Type=UKS/CHARGE (state 1.1)

 Number of core orbitals:           5 (   5 )
 Number of closed-shell orbitals:  16 (  16 )

 Basis set MINAO-AUTO-PP generated.      Number of basis functions:   37 

 Polarized AO type:                A = (O Ot + (1-O)(1-Ot)) P12
 Orthogonalization method:         Symmetric (Loewdin)
 Localization functional:          L = sum[A,i] <i|n_A|i>^4 -> max

 Localization group 1:  21 orbitals, occupancy  2.000
 Iterative localization: IB/PM,    7 iter; Final gradient 0.84E-09

 Bond order analysis:       [THRPRINT= 0.020]

   CEN ATOM   CEN ATOM     WIBERG.BO      RENORM.BO
     1   C  -   5   C       0.996215       0.996245
     1   C  -   4   C       0.996213       0.996244
     1   C  -   3   C       0.996213       0.996245
     1   C  -   2   C       0.996211       0.996242

     2   C  -   1   C       0.996211       0.996242
     2   C  -  15   H       0.966497       0.986283
     2   C  -  17   H       0.966493       0.986283
     2   C  -  16   H       0.966493       0.986283

     3   C  -   1   C       0.996213       0.996245
     3   C  -  10   H       0.966497       0.986282
     3   C  -   9   H       0.966496       0.986283
     3   C  -   6   H       0.966494       0.986283

     4   C  -   1   C       0.996213       0.996244
     4   C  -  11   H       0.966497       0.986283
     4   C  -   7   H       0.966495       0.986282
     4   C  -  12   H       0.966491       0.986282

     5   C  -   1   C       0.996215       0.996245
     5   C  -  14   H       0.966497       0.986282
     5   C  -   8   H       0.966495       0.986282
     5   C  -  13   H       0.966491       0.986282

     6   H  -   3   C       0.966494       0.986283

     7   H  -   4   C       0.966495       0.986282

     8   H  -   5   C       0.966495       0.986282

     9   H  -   3   C       0.966496       0.986283

    10   H  -   3   C       0.966497       0.986282

    11   H  -   4   C       0.966497       0.986283

    12   H  -   4   C       0.966491       0.986282

    13   H  -   5   C       0.966491       0.986282

    14   H  -   5   C       0.966497       0.986282

    15   H  -   2   C       0.966497       0.986283

    16   H  -   2   C       0.966493       0.986283

    17   H  -   2   C       0.966493       0.986283


 Valency analysis:

   CEN ATOM   TOT.VALENCE
     1   C       3.995131
     2   C       3.936857
     3   C       3.936863
     4   C       3.936859
     5   C       3.936859
     6   H       0.983323
     7   H       0.983324
     8   H       0.983324
     9   H       0.983325
    10   H       0.983325
    11   H       0.983326
    12   H       0.983319
    13   H       0.983319
    14   H       0.983326
    15   H       0.983325
    16   H       0.983321
    17   H       0.983321

 Total charge composition:

   CEN ATOM         s          p       ELECTRONS ->P.CHARGE
     1   C       2.93539    3.05421      5.98960    0.01040
     2   C       3.00045    3.38958      6.39002   -0.39002
     3   C       3.00044    3.38956      6.39001   -0.39001
     4   C       3.00045    3.38957      6.39002   -0.39002
     5   C       3.00045    3.38957      6.39002   -0.39002
     6   H       0.87086                 0.87086    0.12914
     7   H       0.87086                 0.87086    0.12914
     8   H       0.87086                 0.87086    0.12914
     9   H       0.87087                 0.87087    0.12913
    10   H       0.87087                 0.87087    0.12913
    11   H       0.87087                 0.87087    0.12913
    12   H       0.87085                 0.87085    0.12915
    13   H       0.87085                 0.87085    0.12915
    14   H       0.87087                 0.87087    0.12913
    15   H       0.87087                 0.87087    0.12913
    16   H       0.87085                 0.87085    0.12915
    17   H       0.87085                 0.87085    0.12915

 Total charge composition, AO contributions:

   CEN ATOM SHL      SPHERICAL COMPONENTS
     1   C  1s       1.99265
     1   C  2s       0.94274
     1   C  2p       1.01807    1.01807    1.01807

     2   C  1s       1.99185
     2   C  2s       1.00860
     2   C  2p       1.05471    1.16743    1.16744

     3   C  1s       1.99185
     3   C  2s       1.00859
     3   C  2p       1.15491    1.06723    1.16742

     4   C  1s       1.99185
     4   C  2s       1.00860
     4   C  2p       1.15490    1.14239    1.09228

     5   C  1s       1.99185
     5   C  2s       1.00860
     5   C  2p       1.15490    1.14240    1.09227

     6   H  1s       0.87086

     7   H  1s       0.87086

     8   H  1s       0.87086

     9   H  1s       0.87087

    10   H  1s       0.87087

    11   H  1s       0.87087

    12   H  1s       0.87085

    13   H  1s       0.87085

    14   H  1s       0.87087

    15   H  1s       0.87087

    16   H  1s       0.87085

    17   H  1s       0.87085

 Summary of localized orbital composition:   [THRPRINT= 0.020]

   ORB  GRP  ORB.ENERGY      CENTERS/CHARGES
     1   1    -9.974317      C  1   2.000
     2   1    -9.927361      C  3   2.000
     3   1    -9.927355      C  4   2.000
     4   1    -9.927355      C  5   2.000
     5   1    -9.927352      C  2   2.000
     6   1    -0.516674      C  5   0.993   C  1   0.985   (other: 0.022)
     7   1    -0.516671      C  3   0.993   C  1   0.985   (other: 0.022)
     8   1    -0.516669      C  4   0.993   C  1   0.985   (other: 0.022)
     9   1    -0.516669      C  2   0.993   C  1   0.985   (other: 0.022)
    10   1    -0.471825      C  3   1.128   H  9   0.864
    11   1    -0.471825      C  2   1.128   H 15   0.864
    12   1    -0.471823      C  3   1.128   H 10   0.864
    13   1    -0.471821      C  3   1.128   H  6   0.864
    14   1    -0.471819      C  4   1.128   H  7   0.864
    15   1    -0.471818      C  4   1.128   H 11   0.864
    16   1    -0.471818      C  5   1.128   H  8   0.864
    17   1    -0.471817      C  5   1.128   H 14   0.864
    18   1    -0.471816      C  2   1.128   H 17   0.864
    19   1    -0.471815      C  2   1.128   H 16   0.864
    20   1    -0.471813      C  4   1.128   H 12   0.864
    21   1    -0.471811      C  5   1.128   H 13   0.864

 Localized orbitals saved to record      2200.2  (orbital set 4)


 **********************************************************************************************************************************
 DATASETS  * FILE   NREC   LENGTH (MB)   RECORD NAMES
              1      20       33.19       500      610      700      900      950      970     1000      129      960     1100   
                                          VAR    BASINP    GEOM    SYMINP    ZMAT    AOBASIS   BASIS     P2S    ABASIS      S 
                                         1400     1410     1200     1210     1080     1600     1650     1300     1700     1800   
                                           T        V       H0       H01     AOSYM     SMH    MOLCAS    ERIS     OPER     GRID   

              2       5        3.11       700     1000      520     1800     2200   
                                         GEOM     BASIS   MCVARS    GRID      UKS  

 PROGRAMS   *        TOTAL      IBBA       UKS       INT
 CPU TIMES  *         6.78      0.03      6.13      0.48
 REAL TIME  *         7.28 SEC
 DISK USED  *        37.15 MB      
 **********************************************************************************************************************************
 Molecular orbitals read from record     2200.2  Type=UKS/LOCAL(IBO)  
 Occupation numbers read from record     2200.2  Type=UKS/LOCAL(IBO)  
 Orbital energies read from record       2200.2  Type=UKS/LOCAL(IBO)  
 Redundancy group numbers read from rec  2200.2  Type=UKS/BETA (state 1.1)

 IBBA/STO-3G energy=      0.000000000000

        UKS-SCF 
   -195.28543228
 **********************************************************************************************************************************
 Molpro calculation terminated
