
 Primary working directories    : /tmp/sb13343
 Secondary working directories  : /tmp/sb13343
 Wavefunction directory         : /panfs/panasas01/chem/sb13343/wfu/
 Main file repository           : /tmp/sb13343/

 SHA1      : b4a5b34a9e711420743f49e6833241d17c61fb3c
 NAME      : 2099.9.b4a5b34
 ARCHNAME  : linux/x86_64_openmp
 FC        : /cm/shared/languages/GCC-6.1/bin/gfortran
 BLASLIB   : -lblas
 id        : simonbennie

 Nodes     nprocs
 node32-002    1

 Using customized tuning parameters: mindgm=1; mindgv=20; mindgc=4; mindgr=1; noblas=0; minvec=7
 default implementation of scratch files=df  

 memory,500,m
 geomtyp=xyz
 nosym
 noorient
 geometry={
 C         -1.53233        0.02247        0.00000
 C         -0.00192        0.01421        0.00000
 O          0.37239        1.40356        0.00000
 H          1.34248        1.44036        0.00000
 H         -1.92991       -0.99819        0.00000
 H         -1.90797        0.54382       -0.88653
 H         -1.90797        0.54382        0.88653
 C          0.54303       -0.66466       -1.26580
 C          0.54303       -0.66466        1.26580
 H          0.17836       -0.14752       -2.15943
 H          0.17836       -0.14752        2.15943
 H          0.23752       -1.71600       -1.32280
 H          0.23752       -1.71600        1.32280
 H          1.64084       -0.63767       -1.28032
 H          1.64084       -0.63767        1.28032
 }
 basis={ default,sto-3g }
 {uks,PBEREV,direct;wf,42,1,0}
 {ibba,bonds=1}

 Variables initialized (895), CPU time= 0.00 sec
 Commands  initialized (725), CPU time= 0.02 sec, 591 directives.
 Default parameters read. Elapsed time= 0.11 sec

 Checking input...
 Passed
1


                                         ***  PROGRAM SYSTEM MOLPRO  ***
                                       Copyright, TTI GmbH Stuttgart, 2015
                                    Version 2099.9 linked May 26 2017 16:03:21


 **********************************************************************************************************************************
 LABEL *                                                                                 
  64 bit serial version                                                                  DATE: 09-Jun-17          TIME: 03:29:13  
 **********************************************************************************************************************************

 SHA1:             b4a5b34a9e711420743f49e6833241d17c61fb3c
 **********************************************************************************************************************************
 SETTING GEOMTYP        =    XYZ

 Variable memory set to  500000000 words,  buffer space 

 ZSYMEL=NOSYM

 SETTING BASIS          =    STO-3G


 Recomputing integrals since basis changed


 Using spherical harmonics

 Library entry C      S STO-3G               selected for orbital group  1
 Library entry C      P STO-3G               selected for orbital group  1
 Library entry O      S STO-3G               selected for orbital group  2
 Library entry O      P STO-3G               selected for orbital group  2
 Library entry H      S STO-3G               selected for orbital group  3


 PROGRAM * SEWARD (Integral evaluation for generally contracted gaussian basis sets)     Author: Roland Lindh, 1990

 Geometry written to block  1 of record 700


 Point group  C1  



 ATOMIC COORDINATES

 NR  ATOM    CHARGE       X              Y              Z

   1  C       6.00   -2.895684032    0.042462146    0.000000000
   2  C       6.00   -0.003628274    0.026853008    0.000000000
   3  O       8.00    0.703715112    2.652343999    0.000000000
   4  H       1.00    2.536919528    2.721885921    0.000000000
   5  H       1.00   -3.647001345   -1.886305720    0.000000000
   6  H       1.00   -3.605540754    1.027670861   -1.675298901
   7  H       1.00   -3.605540754    1.027670861    1.675298901
   8  C       6.00    1.026177977   -1.256025366   -2.392015328
   9  C       6.00    1.026177977   -1.256025366    2.392015328
  10  H       1.00    0.337051552   -0.278772398   -4.080731285
  11  H       1.00    0.337051552   -0.278772398    4.080731285
  12  H       1.00    0.448847749   -3.242770030   -2.499729718
  13  H       1.00    0.448847749   -3.242770030    2.499729718
  14  H       1.00    3.100738214   -1.205021658   -2.419454152
  15  H       1.00    3.100738214   -1.205021658    2.419454152

 Bond lengths in Bohr (Angstrom)

 1-2  2.892097881  1-5  2.069933136  1-6  2.069096224  1-7  2.069096224  2-3  2.719106031
     ( 1.530432290)     ( 1.095361444)     ( 1.094918569)     ( 1.094918569)     ( 1.438888946)

  2- 8  2.903104402   2- 9  2.903104402   3- 4  1.834522965   8-10  2.069222119   8-12  2.071730422
       ( 1.536256691)       ( 1.536256691)       ( 0.970787746)       ( 1.094985190)       ( 1.096312526)

  8-14  2.075368508   9-11  2.069222119   9-13  2.071730422   9-15  2.075368508
       ( 1.098237719)       ( 1.094985190)       ( 1.096312526)       ( 1.098237719)

 Bond angles

  1-2-3  104.76902697   1-2-8  110.92255387   1-2-9  110.92255387   2-1-5  110.97328220

  2- 1- 6  110.22090701   2- 1- 7  110.22090701   2- 3- 4  107.25071562   2- 8-10  110.21836376

  2- 8-12  111.57747468   2- 8-14  110.77023896   2- 9-11  110.21836376   2- 9-13  111.57747468

  2- 9-15  110.77023896   3- 2- 8  109.53648747   3- 2- 9  109.53648747   5- 1- 6  108.61190457

  5- 1- 7  108.61190457   6- 1- 7  108.12870271   8- 2- 9  110.96453384  10- 8-12  108.52192632

 10- 8-14  108.08997829  11- 9-13  108.52192632  11- 9-15  108.08997829  12- 8-14  107.54424578

 13- 9-15  107.54424578

 NUCLEAR CHARGE:                   42
 NUMBER OF PRIMITIVE AOS:         105
 NUMBER OF SYMMETRY AOS:          105
 NUMBER OF CONTRACTIONS:           35   (  35A   )
 NUMBER OF CORE ORBITALS:           5   (   5A   )
 NUMBER OF VALENCE ORBITALS:       30   (  30A   )


 NUCLEAR REPULSION ENERGY  198.77359127


 Eigenvalues of metric

         1 0.207E+00 0.227E+00 0.228E+00 0.304E+00 0.354E+00 0.360E+00 0.361E+00 0.363E+00


 Contracted 2-electron integrals neglected if value below      1.0D-11
 AO integral compression algorithm  1   Integral accuracy      1.0D-11

     1.573 MB (compressed) written to integral file ( 87.8%)


 NUMBER OF SORTED TWO-ELECTRON INTEGRALS:     198765.     BUFFER LENGTH:  32768
 NUMBER OF SEGMENTS:   1  SEGMENT LENGTH:     198765      RECORD LENGTH: 524288

 Memory used in sort:       0.76 MW

 SORT1 READ      224962. AND WROTE      188577. INTEGRALS IN      1 RECORDS. CPU TIME:     0.00 SEC, REAL TIME:     0.01 SEC
 SORT2 READ      188577. AND WROTE      198765. INTEGRALS IN      6 RECORDS. CPU TIME:     0.02 SEC, REAL TIME:     0.02 SEC

 FILE SIZES:   FILE 1:    31.8 MBYTE,  FILE 4:     4.2 MBYTE,   TOTAL:     36.0 MBYTE

 OPERATOR DM      FOR CENTER  0  COORDINATES:    0.000000    0.000000    0.000000


 **********************************************************************************************************************************
 DATASETS  * FILE   NREC   LENGTH (MB)   RECORD NAMES
              1      19       31.10       500      610      700      900      950      970     1000      129      960     1100   
                                          VAR    BASINP    GEOM    SYMINP    ZMAT    AOBASIS   BASIS     P2S    ABASIS      S 
                                         1400     1410     1200     1210     1080     1600     1650     1300     1700   
                                           T        V       H0       H01     AOSYM     SMH    MOLCAS    ERIS     OPER   

 PROGRAMS   *        TOTAL       INT
 CPU TIMES  *         0.59      0.45
 REAL TIME  *         2.00 SEC
 DISK USED  *        36.55 MB      
 **********************************************************************************************************************************

 Density functional group PBEREV=PBEXREV+PBEC
 Functional: PBEXREV(Automatically generated (new) PBEXREV)                    Gradient terms: 1
 Functional: PBEC(Automatically generated (new) PBEC)                          Gradient terms: 1
 Use grid at  1800.2

 Functional: PBEXREV                   Factor:  1.0000
 Functional: PBEC                      Factor:  1.0000

 Generated new metagrid on record  1800.2 with target accuracy 1.0D-06 and 53396 points in CPU time    1.7
 Computed new grid on record 1800.1 in CPU time    1.9
   32369 words reserved for DFT integration

 PROGRAM * UKS-SCF (Unrestricted Kohn-Sham)     Authors: W. Meyer, H.-J. Werner, P.J. Knowles, 1993

 NUMBER OF ELECTRONS:      21+   21-    SPACE SYMMETRY=1    SPIN SYMMETRY: Singlet 
 CONVERGENCE THRESHOLDS:    1.00E-05 (Density)    1.00E-06 (Energy)
 MAX. NUMBER OF ITERATIONS:       60
 INTERPOLATION TYPE:            DIIS
 INTERPOLATION STEPS:              2 (START)      1 (STEP)
 LEVEL SHIFTS:                 -0.20 (ALPHA)  -0.20 (BETA) 



 Use fine grid record 1800.2 for energy threshold  1.0D-06
 Orbital guess generated from atomic densities. Full valence occupancy:   21

 Molecular orbital dump at record        2200.2

 Initial alpha occupation  21
 Initial beta  occupation  21

 ITERATION    DDIFF          GRAD             ENERGY        2-EL.EN.            DIPOLE MOMENTS         DIIS
    1      0.000D+00      0.000D+00      -230.32176203    639.986797    0.76559   -1.03998    0.00000    0
    2      0.617D-01      0.199D-01      -230.65231021    620.729276    0.22234   -0.31548    0.00000    1
    3      0.109D-01      0.441D-02      -230.66693965    623.702289    0.31172   -0.34615    0.00000    2
    4      0.104D-02      0.426D-03      -230.66712427    623.664716    0.31928   -0.35706    0.00000    3
    5      0.531D-03      0.134D-03      -230.66715371    623.658634    0.31899   -0.34949    0.00000    4
    6      0.153D-03      0.330D-04      -230.66715585    623.656752    0.31936   -0.34933    0.00000    5
    7      0.367D-04      0.887D-05      -230.66715592    623.657682    0.31906   -0.34891    0.00000    5
    8      0.135D-04      0.568D-05      -230.66715594    623.657025    0.31912   -0.34905    0.00000    6
    9      0.180D-05      0.388D-06      -230.66715594    623.657099    0.31913   -0.34903    0.00000    6
   10      0.587D-06      0.190D-06      -230.66715594    623.657061    0.31912   -0.34904    0.00000    6

 Final alpha occupancy:  21
 Final beta  occupancy:  21

 !UKS STATE 1.1 Energy               -230.667155941758
 Nuclear energy                       198.77359127
 One-electron energy                 -707.19580565
 Two-electron energy                  311.82853072
 Density functional                   -34.07347228     PBEXREV=-32.66340622 PBEC= -1.41006606
 Virial quotient                       -1.01540051
 !UKS STATE 1.1 Dipole moment           0.31912310    -0.34903728     0.00000000
 Dipole moment /Debye                   0.81107688    -0.88710616     0.00000000

 Orbital energies for positive spin:

         1.1          2.1          3.1          4.1          5.1          6.1          7.1          8.1          9.1         10.1
    -18.476730    -9.777608    -9.717162    -9.716896    -9.716809    -0.857497    -0.668167    -0.585912    -0.585016    -0.457167

        11.1         12.1         13.1         14.1         15.1         16.1         17.1         18.1         19.1         20.1
     -0.382743    -0.354665    -0.354094    -0.313131    -0.308437    -0.285690    -0.284241    -0.253332    -0.250208    -0.150588

        21.1         22.1         23.1
     -0.062497     0.256537     0.316965

 Orbital energies for negative spin:

         1.1          2.1          3.1          4.1          5.1          6.1          7.1          8.1          9.1         10.1
    -18.476730    -9.777608    -9.717162    -9.716896    -9.716809    -0.857497    -0.668167    -0.585912    -0.585016    -0.457167

        11.1         12.1         13.1         14.1         15.1         16.1         17.1         18.1         19.1         20.1
     -0.382743    -0.354665    -0.354094    -0.313131    -0.308437    -0.285690    -0.284241    -0.253332    -0.250208    -0.150588

        21.1         22.1         23.1
     -0.062497     0.256537     0.316965

 HOMO     21.1    -0.062497 =      -1.7006eV
 LUMO     22.1     0.256537 =       6.9807eV
 LUMO-HOMO         0.319034 =       8.6814eV

 EXPECTATION VALUE OF S**2:            -0.00000000

 Natural orbitals saved to record    2200.2 (Orbital set 3)

 Orbital spaces for UNO-CAS (Min. occupation: 0.020  Max. occupation: 1.980):

 Closed:       21
 Active:        0


 **********************************************************************************************************************************
 DATASETS  * FILE   NREC   LENGTH (MB)   RECORD NAMES
              1      20       32.81       500      610      700      900      950      970     1000      129      960     1100   
                                          VAR    BASINP    GEOM    SYMINP    ZMAT    AOBASIS   BASIS     P2S    ABASIS      S 
                                         1400     1410     1200     1210     1080     1600     1650     1300     1700     1800   
                                           T        V       H0       H01     AOSYM     SMH    MOLCAS    ERIS     OPER     GRID   

              2       5        3.05       700     1000      520     1800     2200   
                                         GEOM     BASIS   MCVARS    GRID      UKS  

 PROGRAMS   *        TOTAL       UKS       INT
 CPU TIMES  *         6.80      6.20      0.45
 REAL TIME  *        11.74 SEC
 DISK USED  *        36.55 MB      
 **********************************************************************************************************************************


 PROGRAM * Intrinsic Basis Bonding Analysis (IBBA)          Author: G. Knizia

 Molecular orbitals read from record     2200.2  Type=UKS/ALPHA (state 1.1)
 Fock matrix read from record            2200.2  Type=UKS/TOTAL (state 1.1)
 Orbital energies read from record       2200.2  Type=UKS/ALPHA (state 1.1)
 Density matrix read from record         2200.2  Type=UKS/CHARGE (state 1.1)

 Number of core orbitals:           5 (   5 )
 Number of closed-shell orbitals:  16 (  16 )

 Basis set MINAO-AUTO-PP generated.      Number of basis functions:   35 

 Polarized AO type:                A = (O Ot + (1-O)(1-Ot)) P12
 Orthogonalization method:         Symmetric (Loewdin)
 Localization functional:          L = sum[A,i] <i|n_A|i>^4 -> max

 Localization group 1:  21 orbitals, occupancy  2.000
 Iterative localization: IB/PM,    7 iter; Final gradient 0.15E-08

 Bond order analysis:       [THRPRINT= 0.020]

   CEN ATOM   CEN ATOM     WIBERG.BO      RENORM.BO
     1   C  -   2   C       0.990397       0.985128
     1   C  -   5   H       0.966487       0.989616
     1   C  -   6   H       0.963134       0.986497
     1   C  -   7   H       0.963134       0.986497

     2   C  -   3   O       1.005150       0.981069
     2   C  -   1   C       0.990397       0.985128
     2   C  -   8   C       0.985213       0.958060
     2   C  -   9   C       0.985213       0.958060

     3   O  -   2   C       1.005150       0.981069
     3   O  -   4   H       0.930312       0.981031
     3   O  -   9   C       0.030166       0.015620
     3   O  -   8   C       0.030166       0.015620

     4   H  -   3   O       0.930312       0.981031

     5   H  -   1   C       0.966487       0.989616

     6   H  -   1   C       0.963134       0.986497

     7   H  -   1   C       0.963134       0.986497

     8   C  -   2   C       0.985213       0.958060
     8   C  -  14   H       0.965883       0.985710
     8   C  -  12   H       0.964187       0.986631
     8   C  -  10   H       0.964008       0.986182
     8   C  -   3   O       0.030166       0.015620

     9   C  -   2   C       0.985213       0.958060
     9   C  -  15   H       0.965883       0.985710
     9   C  -  13   H       0.964187       0.986631
     9   C  -  11   H       0.964008       0.986182
     9   C  -   3   O       0.030166       0.015620

    10   H  -   8   C       0.964008       0.986182

    11   H  -   9   C       0.964008       0.986182

    12   H  -   8   C       0.964187       0.986631

    13   H  -   9   C       0.964187       0.986631

    14   H  -   8   C       0.965883       0.985710

    15   H  -   9   C       0.965883       0.985710


 Valency analysis:

   CEN ATOM   TOT.VALENCE
     1   C       3.935124
     2   C       3.975178
     3   O       2.049043
     4   H       0.948514
     5   H       0.982996
     6   H       0.981535
     7   H       0.981535
     8   C       3.937900
     9   C       3.937900
    10   H       0.982160
    11   H       0.982160
    12   H       0.982661
    13   H       0.982661
    14   H       0.984479
    15   H       0.984479

 Total charge composition:

   CEN ATOM         s          p       ELECTRONS ->P.CHARGE
     1   C       3.00173    3.38968      6.39141   -0.39141
     2   C       2.94884    2.93561      5.88445    0.11555
     3   O       3.68799    4.63556      8.32355   -0.32355
     4   H       0.77310                 0.77310    0.22690
     5   H       0.86960                 0.86960    0.13040
     6   H       0.86411                 0.86411    0.13589
     7   H       0.86411                 0.86411    0.13589
     8   C       3.00701    3.39765      6.40466   -0.40466
     9   C       3.00701    3.39765      6.40466   -0.40466
    10   H       0.86643                 0.86643    0.13357
    11   H       0.86643                 0.86643    0.13357
    12   H       0.86832                 0.86832    0.13168
    13   H       0.86832                 0.86832    0.13168
    14   H       0.87542                 0.87542    0.12458
    15   H       0.87542                 0.87542    0.12458

 Total charge composition, AO contributions:

   CEN ATOM SHL      SPHERICAL COMPONENTS
     1   C  1s       1.99194
     1   C  2s       1.00979
     1   C  2p       1.05082    1.16567    1.17320

     2   C  1s       1.99335
     2   C  2s       0.95549
     2   C  2p       1.02906    0.87927    1.02728

     3   O  1s       1.99736
     3   O  2s       1.69063
     3   O  2p       1.34500    1.34008    1.95048

     4   H  1s       0.77310

     5   H  1s       0.86960

     6   H  1s       0.86411

     7   H  1s       0.86411

     8   C  1s       1.99204
     8   C  2s       1.01497
     8   C  2p       1.14809    1.14891    1.10065

     9   C  1s       1.99204
     9   C  2s       1.01497
     9   C  2p       1.14809    1.14891    1.10065

    10   H  1s       0.86643

    11   H  1s       0.86643

    12   H  1s       0.86832

    13   H  1s       0.86832

    14   H  1s       0.87542

    15   H  1s       0.87542

 Summary of localized orbital composition:   [THRPRINT= 0.020]

   ORB  GRP  ORB.ENERGY      CENTERS/CHARGES
     1   1   -18.306764      O  3   2.000
     2   1    -9.686484      C  2   2.000
     3   1    -9.607763      C  8   2.000
     4   1    -9.607763      C  9   2.000
     5   1    -9.607196      C  1   2.000
     6   1    -0.591055      O  3   1.225   H  4   0.765
     7   1    -0.547373      O  3   1.157   C  2   0.826
     8   1    -0.466657      C  2   0.993   C  1   0.984   (other: 0.023)
     9   1    -0.466016      C  8   0.999   C  2   0.987
    10   1    -0.466016      C  9   0.999   C  2   0.987
    11   1    -0.428870      O  3   1.985
    12   1    -0.414327      C  9   1.122   H 15   0.869
    13   1    -0.414327      C  8   1.122   H 14   0.869
    14   1    -0.412752      C  9   1.129   H 13   0.860
    15   1    -0.412752      C  8   1.129   H 12   0.860
    16   1    -0.411480      C  1   1.127   H  5   0.863
    17   1    -0.409999      C  9   1.132   H 11   0.859
    18   1    -0.409999      C  8   1.132   H 10   0.859
    19   1    -0.405788      C  1   1.133   H  6   0.857
    20   1    -0.405788      C  1   1.133   H  7   0.857
    21   1    -0.079421      O  3   1.950   C  2   0.023   (other: 0.026)

 Localized orbitals saved to record      2200.2  (orbital set 4)


 **********************************************************************************************************************************
 DATASETS  * FILE   NREC   LENGTH (MB)   RECORD NAMES
              1      20       32.81       500      610      700      900      950      970     1000      129      960     1100   
                                          VAR    BASINP    GEOM    SYMINP    ZMAT    AOBASIS   BASIS     P2S    ABASIS      S 
                                         1400     1410     1200     1210     1080     1600     1650     1300     1700     1800   
                                           T        V       H0       H01     AOSYM     SMH    MOLCAS    ERIS     OPER     GRID   

              2       5        3.06       700     1000      520     1800     2200   
                                         GEOM     BASIS   MCVARS    GRID      UKS  

 PROGRAMS   *        TOTAL      IBBA       UKS       INT
 CPU TIMES  *         6.83      0.03      6.20      0.45
 REAL TIME  *        11.91 SEC
 DISK USED  *        36.55 MB      
 **********************************************************************************************************************************
 Molecular orbitals read from record     2200.2  Type=UKS/LOCAL(IBO)  
 Occupation numbers read from record     2200.2  Type=UKS/LOCAL(IBO)  
 Orbital energies read from record       2200.2  Type=UKS/LOCAL(IBO)  
 Redundancy group numbers read from rec  2200.2  Type=UKS/BETA (state 1.1)

 IBBA/STO-3G energy=      0.000000000000

        UKS-SCF 
   -230.66715594
 **********************************************************************************************************************************
 Molpro calculation terminated
