
 Primary working directories    : /tmp/sb13343
 Secondary working directories  : /tmp/sb13343
 Wavefunction directory         : /panfs/panasas01/chem/sb13343/wfu/
 Main file repository           : /tmp/sb13343/

 SHA1      : b4a5b34a9e711420743f49e6833241d17c61fb3c
 NAME      : 2099.9.b4a5b34
 ARCHNAME  : linux/x86_64_openmp
 FC        : /cm/shared/languages/GCC-6.1/bin/gfortran
 BLASLIB   : -lblas
 id        : simonbennie

 Nodes     nprocs
 node32-036    1

 Using customized tuning parameters: mindgm=1; mindgv=20; mindgc=4; mindgr=1; noblas=0; minvec=7
 default implementation of scratch files=df  

 memory,500,m
 geomtyp=xyz
 nosym
 noorient
 geometry={
 H         -1.13405        1.76167        0.00000
 C         -1.32915        0.67205        0.00000
 C         -0.06360       -0.12883        0.00000
 C          0.67426       -0.31636        1.28970
 C          0.67426       -0.31636       -1.28970
 H         -1.94006        0.46750        0.88859
 H         -1.94006        0.46750       -0.88859
 H          1.28359        0.56876        1.55544
 H         -0.01165       -0.48291        2.13019
 H          1.36783       -1.16569        1.24157
 H          1.28359        0.56876       -1.55544
 H         -0.01165       -0.48291       -2.13019
 H          1.36783       -1.16569       -1.24157
 }
 basis={ default,sto-3g }
 {uks,B-P,direct;wf,33,1,1}
 {ibba,bonds=1}

 Variables initialized (895), CPU time= 0.00 sec
 Commands  initialized (725), CPU time= 0.01 sec, 591 directives.
 Default parameters read. Elapsed time= 0.07 sec

 Checking input...
 Passed
1


                                         ***  PROGRAM SYSTEM MOLPRO  ***
                                       Copyright, TTI GmbH Stuttgart, 2015
                                    Version 2099.9 linked May 26 2017 16:03:21


 **********************************************************************************************************************************
 LABEL *                                                                                 
  64 bit serial version                                                                  DATE: 08-Jun-17          TIME: 20:16:57  
 **********************************************************************************************************************************

 SHA1:             b4a5b34a9e711420743f49e6833241d17c61fb3c
 **********************************************************************************************************************************
 SETTING GEOMTYP        =    XYZ

 Variable memory set to  500000000 words,  buffer space 

 ZSYMEL=NOSYM

 SETTING BASIS          =    STO-3G


 Recomputing integrals since basis changed


 Using spherical harmonics

 Library entry H      S STO-3G               selected for orbital group  1
 Library entry C      S STO-3G               selected for orbital group  2
 Library entry C      P STO-3G               selected for orbital group  2


 PROGRAM * SEWARD (Integral evaluation for generally contracted gaussian basis sets)     Author: Roland Lindh, 1990

 Geometry written to block  1 of record 700


 Point group  C1  



 ATOMIC COORDINATES

 NR  ATOM    CHARGE       X              Y              Z

   1  H       1.00   -2.143043912    3.329073822    0.000000000
   2  C       6.00   -2.511729478    1.269990442    0.000000000
   3  C       6.00   -0.120186582   -0.243453417    0.000000000
   4  C       6.00    1.274166737   -0.597833757    2.437179783
   5  C       6.00    1.274166737   -0.597833757   -2.437179783
   6  H       1.00   -3.666182065    0.883446963    1.679191737
   7  H       1.00   -3.666182065    0.883446963   -1.679191737
   8  H       1.00    2.425633556    1.074800631    2.939355603
   9  H       1.00   -0.022015309   -0.912567643    4.025475693
  10  H       1.00    2.584824085   -2.202834846    2.346227264
  11  H       1.00    2.425633556    1.074800631   -2.939355603
  12  H       1.00   -0.022015309   -0.912567643   -4.025475693
  13  H       1.00    2.584824085   -2.202834846   -2.346227264

 Bond lengths in Bohr (Angstrom)

 1-2  2.091830159  2-3  2.830192527  2-6  2.074092940  2-7  2.074092940  3-4  2.830132841
     ( 1.106948849)     ( 1.497673388)     ( 1.097562717)     ( 1.097562717)     ( 1.497641803)

  3- 5  2.830132841   4- 8  2.091832255   4- 9  2.074085151   4-10  2.074156104   5-11  2.091832255
       ( 1.497641803)       ( 1.106949959)       ( 1.097558596)       ( 1.097596142)       ( 1.106949959)

  5-12  2.074085151   5-13  2.074156104
       ( 1.097558596)       ( 1.097596142)

 Bond angles

  1-2-3  112.17549786   1-2-6  106.35284965   1-2-7  106.35284965   2-3-4  118.89987932

  2-3-5  118.89987932   3-2-6  111.75744418   3-2-7  111.75744418   3-4-8  112.19808176

  3- 4- 9  111.75014522   3- 4-10  111.74379558   3- 5-11  112.19808176   3- 5-12  111.75014522

  3- 5-13  111.74379558   4- 3- 5  118.89276928   6- 2- 7  108.11431090   8- 4- 9  106.34995457

  8- 4-10  106.34572146   9- 4-10  108.12296896  11- 5-12  106.34995457  11- 5-13  106.34572146

 12- 5-13  108.12296896

 NUCLEAR CHARGE:                   33
 NUMBER OF PRIMITIVE AOS:          87
 NUMBER OF SYMMETRY AOS:           87
 NUMBER OF CONTRACTIONS:           29   (  29A   )
 NUMBER OF CORE ORBITALS:           4   (   4A   )
 NUMBER OF VALENCE ORBITALS:       25   (  25A   )


 NUCLEAR REPULSION ENERGY  124.92676597


 Eigenvalues of metric

         1 0.210E+00 0.225E+00 0.225E+00 0.315E+00 0.353E+00 0.353E+00 0.362E+00 0.372E+00


 Contracted 2-electron integrals neglected if value below      1.0D-11
 AO integral compression algorithm  1   Integral accuracy      1.0D-11

     0.786 MB (compressed) written to integral file (100.0%)


 NUMBER OF SORTED TWO-ELECTRON INTEGRALS:      94830.     BUFFER LENGTH:  32768
 NUMBER OF SEGMENTS:   1  SEGMENT LENGTH:      94830      RECORD LENGTH: 524288

 Memory used in sort:       0.65 MW

 SORT1 READ      108770. AND WROTE       91348. INTEGRALS IN      1 RECORDS. CPU TIME:     0.00 SEC, REAL TIME:     0.01 SEC
 SORT2 READ       91348. AND WROTE       94830. INTEGRALS IN      3 RECORDS. CPU TIME:     0.01 SEC, REAL TIME:     0.01 SEC

 FILE SIZES:   FILE 1:    31.0 MBYTE,  FILE 4:     4.2 MBYTE,   TOTAL:     35.2 MBYTE

 OPERATOR DM      FOR CENTER  0  COORDINATES:    0.000000    0.000000    0.000000


 **********************************************************************************************************************************
 DATASETS  * FILE   NREC   LENGTH (MB)   RECORD NAMES
              1      19       30.62       500      610      700      900      950      970     1000      129      960     1100   
                                          VAR    BASINP    GEOM    SYMINP    ZMAT    AOBASIS   BASIS     P2S    ABASIS      S 
                                         1400     1410     1200     1210     1080     1600     1650     1300     1700   
                                           T        V       H0       H01     AOSYM     SMH    MOLCAS    ERIS     OPER   

 PROGRAMS   *        TOTAL       INT
 CPU TIMES  *         0.45      0.31
 REAL TIME  *         0.75 SEC
 DISK USED  *        35.68 MB      
 **********************************************************************************************************************************

 Density functional group B-P=B88+P86
 Functional: B88(Automatically generated (new) B88)                            Gradient terms: 1
 Functional: P86(Automatically generated (new) P86)                            Gradient terms: 1
 Use grid at  1800.2

 Functional: B88                       Factor:  1.0000
 Functional: P86                       Factor:  1.0000

 Generated new metagrid on record  1800.2 with target accuracy 1.0D-06 and 45406 points in CPU time    1.4
 Computed new grid on record 1800.1 in CPU time    1.5
   27459 words reserved for DFT integration

 PROGRAM * UKS-SCF (Unrestricted Kohn-Sham)     Authors: W. Meyer, H.-J. Werner, P.J. Knowles, 1993

 NUMBER OF ELECTRONS:      17+   16-    SPACE SYMMETRY=1    SPIN SYMMETRY: Doublet 
 CONVERGENCE THRESHOLDS:    1.00E-05 (Density)    1.00E-06 (Energy)
 MAX. NUMBER OF ITERATIONS:       60
 INTERPOLATION TYPE:            DIIS
 INTERPOLATION STEPS:              2 (START)      1 (STEP)
 LEVEL SHIFTS:                 -0.20 (ALPHA)  -0.20 (BETA) 



 Use fine grid record 1800.2 for energy threshold  1.0D-06
 Orbital guess generated from atomic densities. Full valence occupancy:   17

 Molecular orbital dump at record        2200.2

 Initial alpha occupation  17
 Initial beta  occupation  16

 ITERATION    DDIFF          GRAD             ENERGY        2-EL.EN.            DIPOLE MOMENTS         DIIS
    1      0.000D+00      0.000D+00      -155.63011493    413.277128    0.21057    0.42580   -0.00000    0
    2      0.641D-01      0.214D-01      -155.89627399    399.178364    0.02718    0.05504   -0.00000    1
    3      0.112D-01      0.471D-02      -155.90865673    401.409764    0.04419    0.08944   -0.00000    2
    4      0.170D-02      0.889D-03      -155.90959411    401.388099    0.04214    0.08530   -0.00000    3
    5      0.798D-03      0.472D-03      -155.90981907    401.389896    0.03946    0.07987   -0.00000    4
    6      0.331D-03      0.113D-03      -155.90983978    401.382761    0.03894    0.07882   -0.00000    5
    7      0.389D-04      0.156D-04      -155.90984008    401.382556    0.03889    0.07873   -0.00000    6
    8      0.615D-05      0.271D-05      -155.90984009    401.382599    0.03889    0.07873   -0.00000    5
    9      0.865D-06      0.515D-06      -155.90984009    401.382557    0.03889    0.07872   -0.00000    5

 Final alpha occupancy:  17
 Final beta  occupancy:  16

 !UKS STATE 1.1 Energy               -155.909840088813
 Nuclear energy                       124.92676597
 One-electron energy                 -456.43222481
 Two-electron energy                  200.69127830
 Density functional                   -25.09565955     B88=-23.92868023 P86= -1.16697933
 Virial quotient                       -1.01620110
 !UKS STATE 1.1 Dipole moment           0.03889000     0.07872235    -0.00000000
 Dipole moment /Debye                   0.09884204     0.20007915    -0.00000000

 Orbital energies for positive spin:

         1.1          2.1          3.1          4.1          5.1          6.1          7.1          8.1          9.1         10.1
     -9.724052    -9.724043    -9.724040    -9.706073    -0.683952    -0.585652    -0.585645    -0.440575    -0.354032    -0.352039

        11.1         12.1         13.1         14.1         15.1         16.1         17.1         18.1         19.1
     -0.352038    -0.302495    -0.302462    -0.285222    -0.255083    -0.255079    -0.063033     0.339510     0.339519

 Orbital energies for negative spin:

         1.1          2.1          3.1          4.1          5.1          6.1          7.1          8.1          9.1         10.1
     -9.724945    -9.724940    -9.724923    -9.692064    -0.668169    -0.584017    -0.584010    -0.422526    -0.348503    -0.348500

        11.1         12.1         13.1         14.1         15.1         16.1         17.1         18.1         19.1
     -0.339595    -0.299165    -0.299133    -0.284722    -0.249389    -0.249382     0.039824     0.343718     0.343726

 HOMO     17.1    -0.063033 =      -1.7152eV
 LUMO    -17.1     0.039824 =       1.0837eV
 LUMO-HOMO         0.102857 =       2.7989eV

 EXPECTATION VALUE OF S**2:             0.75353474

 Occupation number threshold for canonical orbitals:  1.999000 (occupied),  0.001000 (virtual)

 Number of pseudo-canonical orbitals per symmetry:   16
 Number of active natural orbitals per symmetry:      1

 Natural orbitals saved to record    2200.2 (Orbital set 3)

 Orbital spaces for UNO-CAS (Min. occupation: 0.020  Max. occupation: 1.980):

 Closed:       16
 Active:        1


 **********************************************************************************************************************************
 DATASETS  * FILE   NREC   LENGTH (MB)   RECORD NAMES
              1      20       32.07       500      610      700      900      950      970     1000      129      960     1100   
                                          VAR    BASINP    GEOM    SYMINP    ZMAT    AOBASIS   BASIS     P2S    ABASIS      S 
                                         1400     1410     1200     1210     1080     1600     1650     1300     1700     1800   
                                           T        V       H0       H01     AOSYM     SMH    MOLCAS    ERIS     OPER     GRID   

              2       5        3.00       700     1000      520     1800     2200   
                                         GEOM     BASIS   MCVARS    GRID      UKS  

 PROGRAMS   *        TOTAL       UKS       INT
 CPU TIMES  *         4.79      4.34      0.31
 REAL TIME  *         5.43 SEC
 DISK USED  *        35.68 MB      
 **********************************************************************************************************************************


 PROGRAM * Intrinsic Basis Bonding Analysis (IBBA)          Author: G. Knizia

 Molecular orbitals read from record     2200.2  Type=UKS/ALPHA (state 1.1)
 Fock matrix read from record            2200.2  Type=UKS/TOTAL (state 1.1)
 Orbital energies read from record       2200.2  Type=UKS/ALPHA (state 1.1)
 Density matrix read from record         2200.2  Type=UKS/CHARGE (state 1.1)

 Number of core orbitals:           4 (   4 )
 Number of closed-shell orbitals:  12 (  12 )
 Number of active  orbitals:        1 (   1 )

 Basis set MINAO-AUTO-PP generated.      Number of basis functions:   29 

 Polarized AO type:                A = (O Ot + (1-O)(1-Ot)) P12
 Orthogonalization method:         Symmetric (Loewdin)
 Localization functional:          L = sum[A,i] <i|n_A|i>^4 -> max

 Localization group 1:  16 orbitals, occupancy  2.000
 Iterative localization: IB/PM,    8 iter; Final gradient 0.52E-09

 Bond order analysis:       [THRPRINT= 0.020]

   CEN ATOM   CEN ATOM     WIBERG.BO      RENORM.BO
     1   H  -   2   C       0.897235       0.996850
     1   H  -   3   C       0.046904       0.181313

     2   C  -   3   C       1.109436       1.310913
     2   C  -   7   H       0.951797       0.989153
     2   C  -   6   H       0.951797       0.989153
     2   C  -   1   H       0.897235       0.996850

     3   C  -   2   C       1.109436       1.310913
     3   C  -   5   C       1.109424       1.310879
     3   C  -   4   C       1.109424       1.310879
     3   C  -   1   H       0.046904       0.181313
     3   C  -  11   H       0.046873       0.181193
     3   C  -   8   H       0.046873       0.181193

     4   C  -   3   C       1.109424       1.310879
     4   C  -   9   H       0.951846       0.989146
     4   C  -  10   H       0.951726       0.989165
     4   C  -   8   H       0.897267       0.996845

     5   C  -   3   C       1.109424       1.310879
     5   C  -  12   H       0.951846       0.989146
     5   C  -  13   H       0.951726       0.989165
     5   C  -  11   H       0.897267       0.996845

     6   H  -   2   C       0.951797       0.989153

     7   H  -   2   C       0.951797       0.989153

     8   H  -   4   C       0.897267       0.996845
     8   H  -   3   C       0.046873       0.181193

     9   H  -   4   C       0.951846       0.989146

    10   H  -   4   C       0.951726       0.989165

    11   H  -   5   C       0.897267       0.996845
    11   H  -   3   C       0.046873       0.181193

    12   H  -   5   C       0.951846       0.989146

    13   H  -   5   C       0.951726       0.989165


 Valency analysis:

   CEN ATOM   TOT.VALENCE
     1   H       0.967220
     2   C       3.944508
     3   C       3.525941
     4   C       3.944506
     5   C       3.944506
     6   H       0.979796
     7   H       0.979796
     8   H       0.967223
     9   H       0.979810
    10   H       0.979782
    11   H       0.967223
    12   H       0.979810
    13   H       0.979782
 Localization group 2:   1 orbitals, occupancy  1.000
 Iterative localization: IB/PM,    1 iter; Final gradient 0.00E+00

 Bond order analysis:       [THRPRINT= 0.020]

   CEN ATOM   CEN ATOM     WIBERG.BO      RENORM.BO
     1   H  -   3   C       0.076738       0.500000


     3   C  -   1   H       0.076738       0.500000
     3   C  -  11   H       0.076732       0.500000
     3   C  -   8   H       0.076732       0.500000





     8   H  -   3   C       0.076732       0.500000



    11   H  -   3   C       0.076732       0.500000




 Valency analysis:

   CEN ATOM   TOT.VALENCE
     1   H       0.095229
     2   C       0.016210
     3   C       0.359084
     4   C       0.016189
     5   C       0.016189
     6   H       0.019691
     7   H       0.019691
     8   H       0.095221
     9   H       0.019619
    10   H       0.019789
    11   H       0.095221
    12   H       0.019619
    13   H       0.019789

 Total charge composition:

   CEN ATOM         s          p       ELECTRONS ->P.CHARGE
     1   H       0.86907                 0.86907    0.13093
     2   C       2.98792    3.36481      6.35274   -0.35274
     3   C       3.01654    3.11117      6.12770   -0.12770
     4   C       2.98791    3.36482      6.35274   -0.35274
     5   C       2.98791    3.36482      6.35274   -0.35274
     6   H       0.86781                 0.86781    0.13219
     7   H       0.86781                 0.86781    0.13219
     8   H       0.86908                 0.86908    0.13092
     9   H       0.86781                 0.86781    0.13219
    10   H       0.86781                 0.86781    0.13219
    11   H       0.86908                 0.86908    0.13092
    12   H       0.86781                 0.86781    0.13219
    13   H       0.86781                 0.86781    0.13219

 Total charge composition, AO contributions:

   CEN ATOM SHL      SPHERICAL COMPONENTS
     1   H  1s       0.86907

     2   C  1s       1.99190
     2   C  2s       0.99603
     2   C  2p       1.08490    1.11399    1.16592

     3   C  1s       1.99318
     3   C  2s       1.02335
     3   C  2p       1.03086    1.05826    1.02205

     4   C  1s       1.99190
     4   C  2s       0.99602
     4   C  2p       1.13335    1.14801    1.08346

     5   C  1s       1.99190
     5   C  2s       0.99602
     5   C  2p       1.13335    1.14801    1.08346

     6   H  1s       0.86781

     7   H  1s       0.86781

     8   H  1s       0.86908

     9   H  1s       0.86781

    10   H  1s       0.86781

    11   H  1s       0.86908

    12   H  1s       0.86781

    13   H  1s       0.86781

 Active orbital charges:

   CEN ATOM         s          p       ELECTRONS ->SPIN.DEN
     1   H       0.05013                 0.05013    0.05013
     2   C       0.00017    0.00800      0.00817    0.00817
     3   C       0.01158    0.75386      0.76544    0.76544
     4   C       0.00017    0.00799      0.00816    0.00816
     5   C       0.00017    0.00799      0.00816    0.00816
     6   H       0.00994                 0.00994    0.00994
     7   H       0.00994                 0.00994    0.00994
     8   H       0.05012                 0.05012    0.05012
     9   H       0.00991                 0.00991    0.00991
    10   H       0.00999                 0.00999    0.00999
    11   H       0.05012                 0.05012    0.05012
    12   H       0.00991                 0.00991    0.00991
    13   H       0.00999                 0.00999    0.00999

 Active orbital charges, AO contributions:

   CEN ATOM SHL      SPHERICAL COMPONENTS
     1   H  1s       0.05013

     2   C  1s       0.00000
     2   C  2s       0.00017
     2   C  2p       0.00018    0.00782    0.00000

     3   C  1s       0.00002
     3   C  2s       0.01156
     3   C  2p       0.14753    0.60633    0.00000

     4   C  1s       0.00000
     4   C  2s       0.00017
     4   C  2p       0.00248    0.00496    0.00055

     5   C  1s       0.00000
     5   C  2s       0.00017
     5   C  2p       0.00248    0.00496    0.00055

     6   H  1s       0.00994

     7   H  1s       0.00994

     8   H  1s       0.05012

     9   H  1s       0.00991

    10   H  1s       0.00999

    11   H  1s       0.05012

    12   H  1s       0.00991

    13   H  1s       0.00999

 Summary of localized orbital composition:   [THRPRINT= 0.020]

   ORB  GRP  ORB.ENERGY      CENTERS/CHARGES
     1   1    -9.614696      C  2   2.000
     2   1    -9.614691      C  5   2.000
     3   1    -9.614691      C  4   2.000
     4   1    -9.601784      C  3   2.000
     5   1    -0.483552      C  3   1.008   C  4   0.979
     6   1    -0.483552      C  3   1.008   C  5   0.979
     7   1    -0.483531      C  3   1.008   C  2   0.979
     8   1    -0.412571      C  2   1.105   H  1   0.813   C  3   0.077
     9   1    -0.412567      C  5   1.105   H 11   0.813   C  3   0.077
    10   1    -0.412567      C  4   1.105   H  8   0.813   C  3   0.077
    11   1    -0.408439      C  2   1.126   H  7   0.851   (other: 0.023)
    12   1    -0.408439      C  2   1.126   H  6   0.851   (other: 0.023)
    13   1    -0.408437      C  5   1.126   H 12   0.851   (other: 0.023)
    14   1    -0.408437      C  4   1.126   H  9   0.851   (other: 0.023)
    15   1    -0.408415      C  5   1.126   H 13   0.851   (other: 0.023)
    16   1    -0.408415      C  4   1.126   H 10   0.851   (other: 0.023)
    17   2    -0.012389      C  3   0.765   H  1   0.050   H 11   0.050   H  8   0.050   (other: 0.084)

 Localized orbitals saved to record      2200.2  (orbital set 4)


 **********************************************************************************************************************************
 DATASETS  * FILE   NREC   LENGTH (MB)   RECORD NAMES
              1      20       32.07       500      610      700      900      950      970     1000      129      960     1100   
                                          VAR    BASINP    GEOM    SYMINP    ZMAT    AOBASIS   BASIS     P2S    ABASIS      S 
                                         1400     1410     1200     1210     1080     1600     1650     1300     1700     1800   
                                           T        V       H0       H01     AOSYM     SMH    MOLCAS    ERIS     OPER     GRID   

              2       5        3.01       700     1000      520     1800     2200   
                                         GEOM     BASIS   MCVARS    GRID      UKS  

 PROGRAMS   *        TOTAL      IBBA       UKS       INT
 CPU TIMES  *         4.81      0.01      4.34      0.31
 REAL TIME  *         5.58 SEC
 DISK USED  *        35.68 MB      
 **********************************************************************************************************************************
 Molecular orbitals read from record     2200.2  Type=UKS/LOCAL(IBO)  
 Occupation numbers read from record     2200.2  Type=UKS/LOCAL(IBO)  
 Orbital energies read from record       2200.2  Type=UKS/LOCAL(IBO)  
 Redundancy group numbers read from rec  2200.2  Type=UKS/BETA (state 1.1)

 IBBA/STO-3G energy=      0.000000000000

        UKS-SCF 
   -155.90984009
 **********************************************************************************************************************************
 Molpro calculation terminated
