
 Primary working directories    : /tmp/sb13343
 Secondary working directories  : /tmp/sb13343
 Wavefunction directory         : /tmp/sb13343/
 Main file repository           : /tmp/sb13343/

 SHA1      : b4a5b34a9e711420743f49e6833241d17c61fb3c
 NAME      : 2099.9.b4a5b34
 ARCHNAME  : linux/x86_64_openmp
 FC        : /cm/shared/languages/GCC-6.1/bin/gfortran
 BLASLIB   : -lblas
 id        : simonbennie

 Nodes     nprocs
 node35-005    1

 Using customized tuning parameters: mindgm=1; mindgv=20; mindgc=4; mindgr=1; noblas=0; minvec=7
 default implementation of scratch files=df  

 memory,500,m
 geomtyp=xyz
 nosym
 noorient
 geometry={
 C         -1.53233        0.02247        0.00000
 C         -0.00192        0.01421        0.00000
 O          0.37239        1.40356        0.00000
 H          1.34248        1.44036        0.00000
 H         -1.92991       -0.99819        0.00000
 H         -1.90797        0.54382       -0.88653
 H         -1.90797        0.54382        0.88653
 C          0.54303       -0.66466       -1.26580
 C          0.54303       -0.66466        1.26580
 H          0.17836       -0.14752       -2.15943
 H          0.17836       -0.14752        2.15943
 H          0.23752       -1.71600       -1.32280
 H          0.23752       -1.71600        1.32280
 H          1.64084       -0.63767       -1.28032
 H          1.64084       -0.63767        1.28032
 }
 basis={ default,SV(P) }
 {ks,B-P,direct;wf,42,1,0}
 {ibba,bonds=1}

 Variables initialized (895), CPU time= 0.01 sec
 Commands  initialized (725), CPU time= 0.01 sec, 591 directives.
 Default parameters read. Elapsed time= 0.07 sec

 Checking input...
 Passed
1


                                         ***  PROGRAM SYSTEM MOLPRO  ***
                                       Copyright, TTI GmbH Stuttgart, 2015
                                    Version 2099.9 linked May 26 2017 16:03:21


 **********************************************************************************************************************************
 LABEL *                                                                                 
  64 bit serial version                                                                  DATE: 12-Jun-17          TIME: 13:12:48  
 **********************************************************************************************************************************

 SHA1:             b4a5b34a9e711420743f49e6833241d17c61fb3c
 **********************************************************************************************************************************
 SETTING GEOMTYP        =    XYZ

 Variable memory set to  500000000 words,  buffer space 

 ZSYMEL=NOSYM

 SETTING BASIS          =    SV(P)


 Recomputing integrals since basis changed


 Using spherical harmonics

 Library entry C      S def2-SV(P)           selected for orbital group  1
 Library entry C      P def2-SV(P)           selected for orbital group  1
 Library entry C      D def2-SV(P)           selected for orbital group  1
 Library entry O      S def2-SV(P)           selected for orbital group  2
 Library entry O      P def2-SV(P)           selected for orbital group  2
 Library entry O      D def2-SV(P)           selected for orbital group  2
 Library entry H      S def2-SV(P)           selected for orbital group  3


 PROGRAM * SEWARD (Integral evaluation for generally contracted gaussian basis sets)     Author: Roland Lindh, 1990

 Geometry written to block  1 of record 700


 Point group  C1  



 ATOMIC COORDINATES

 NR  ATOM    CHARGE       X              Y              Z

   1  C       6.00   -2.895684032    0.042462146    0.000000000
   2  C       6.00   -0.003628274    0.026853008    0.000000000
   3  O       8.00    0.703715112    2.652343999    0.000000000
   4  H       1.00    2.536919528    2.721885921    0.000000000
   5  H       1.00   -3.647001345   -1.886305720    0.000000000
   6  H       1.00   -3.605540754    1.027670861   -1.675298901
   7  H       1.00   -3.605540754    1.027670861    1.675298901
   8  C       6.00    1.026177977   -1.256025366   -2.392015328
   9  C       6.00    1.026177977   -1.256025366    2.392015328
  10  H       1.00    0.337051552   -0.278772398   -4.080731285
  11  H       1.00    0.337051552   -0.278772398    4.080731285
  12  H       1.00    0.448847749   -3.242770030   -2.499729718
  13  H       1.00    0.448847749   -3.242770030    2.499729718
  14  H       1.00    3.100738214   -1.205021658   -2.419454152
  15  H       1.00    3.100738214   -1.205021658    2.419454152

 Bond lengths in Bohr (Angstrom)

 1-2  2.892097881  1-5  2.069933136  1-6  2.069096224  1-7  2.069096224  2-3  2.719106031
     ( 1.530432290)     ( 1.095361444)     ( 1.094918569)     ( 1.094918569)     ( 1.438888946)

  2- 8  2.903104402   2- 9  2.903104402   3- 4  1.834522965   8-10  2.069222119   8-12  2.071730422
       ( 1.536256691)       ( 1.536256691)       ( 0.970787746)       ( 1.094985190)       ( 1.096312526)

  8-14  2.075368508   9-11  2.069222119   9-13  2.071730422   9-15  2.075368508
       ( 1.098237719)       ( 1.094985190)       ( 1.096312526)       ( 1.098237719)

 Bond angles

  1-2-3  104.76902697   1-2-8  110.92255387   1-2-9  110.92255387   2-1-5  110.97328220

  2- 1- 6  110.22090701   2- 1- 7  110.22090701   2- 3- 4  107.25071562   2- 8-10  110.21836376

  2- 8-12  111.57747468   2- 8-14  110.77023896   2- 9-11  110.21836376   2- 9-13  111.57747468

  2- 9-15  110.77023896   3- 2- 8  109.53648747   3- 2- 9  109.53648747   5- 1- 6  108.61190457

  5- 1- 7  108.61190457   6- 1- 7  108.12870271   8- 2- 9  110.96453384  10- 8-12  108.52192632

 10- 8-14  108.08997829  11- 9-13  108.52192632  11- 9-15  108.08997829  12- 8-14  107.54424578

 13- 9-15  107.54424578

 NUCLEAR CHARGE:                   42
 NUMBER OF PRIMITIVE AOS:         165
 NUMBER OF SYMMETRY AOS:          160
 NUMBER OF CONTRACTIONS:           90   (  90A   )
 NUMBER OF CORE ORBITALS:           5   (   5A   )
 NUMBER OF VALENCE ORBITALS:       30   (  30A   )


 NUCLEAR REPULSION ENERGY  198.77359127


 Eigenvalues of metric

         1 0.179E-02 0.600E-02 0.603E-02 0.144E-01 0.286E-01 0.297E-01 0.300E-01 0.361E-01


 Contracted 2-electron integrals neglected if value below      1.0D-11
 AO integral compression algorithm  1   Integral accuracy      1.0D-11

     37.487 MB (compressed) written to integral file ( 49.6%)


 NUMBER OF SORTED TWO-ELECTRON INTEGRALS:    8386560.     BUFFER LENGTH:  32768
 NUMBER OF SEGMENTS:   1  SEGMENT LENGTH:    8386560      RECORD LENGTH: 524288

 Memory used in sort:       8.94 MW

 SORT1 READ     9478508. AND WROTE     7931434. INTEGRALS IN     23 RECORDS. CPU TIME:     0.10 SEC, REAL TIME:     0.22 SEC
 SORT2 READ     7931434. AND WROTE     8386560. INTEGRALS IN    143 RECORDS. CPU TIME:     0.22 SEC, REAL TIME:     0.29 SEC

 FILE SIZES:   FILE 1:    68.0 MBYTE,  FILE 4:    96.5 MBYTE,   TOTAL:    164.5 MBYTE

 OPERATOR DM      FOR CENTER  0  COORDINATES:    0.000000    0.000000    0.000000


 **********************************************************************************************************************************
 DATASETS  * FILE   NREC   LENGTH (MB)   RECORD NAMES
              1      19       63.39       500      610      700      900      950      970     1000      129      960     1100   
                                          VAR    BASINP    GEOM    SYMINP    ZMAT    AOBASIS   BASIS     P2S    ABASIS      S 
                                         1400     1410     1200     1210     1080     1600     1650     1300     1700   
                                           T        V       H0       H01     AOSYM     SMH    MOLCAS    ERIS     OPER   

 PROGRAMS   *        TOTAL       INT
 CPU TIMES  *         1.69      1.55
 REAL TIME  *         2.36 SEC
 DISK USED  *       165.03 MB      
 **********************************************************************************************************************************

 Density functional group B-P=B88+P86
 Functional: B88(Automatically generated (new) B88)                            Gradient terms: 1
 Functional: P86(Automatically generated (new) P86)                            Gradient terms: 1
 Use grid at  1800.2

 Functional: B88                       Factor:  1.0000
 Functional: P86                       Factor:  1.0000

 Generated new metagrid on record  1800.2 with target accuracy 1.0D-06 and 53396 points in CPU time    1.5
 Computed new grid on record 1800.1 in CPU time    1.7
   75909 words reserved for DFT integration

 PROGRAM * RKS-SCF (Restricted closed shell Kohn-Sham)     Authors: W. Meyer, H.-J. Werner, P.J. Knowles, 1993

 NUMBER OF ELECTRONS:      21+   21-    SPACE SYMMETRY=1    SPIN SYMMETRY: Singlet 
 CONVERGENCE THRESHOLDS:    1.00E-05 (Density)    1.00E-06 (Energy)
 MAX. NUMBER OF ITERATIONS:       60
 INTERPOLATION TYPE:            DIIS
 INTERPOLATION STEPS:              2 (START)      1 (STEP)
 LEVEL SHIFTS:                  0.00 (CLOSED)  0.00 (OPEN) 



 Use fine grid record 1800.2 for energy threshold  1.0D-06
 Orbital guess generated from atomic densities. Full valence occupancy:   21

 Molecular orbital dump at record        2100.2

 Initial occupancy:  21

 ITERATION    DDIFF          GRAD             ENERGY        2-EL.EN.            DIPOLE MOMENTS         DIIS   ORB.
    1      0.000D+00      0.000D+00      -233.17951188    639.505709    0.74246   -0.80735    0.00000    0    start
    2      0.000D+00      0.140D-01      -232.80307001    594.807470   -0.31370    0.36845    0.00000    1    diag
    3      0.429D-01      0.209D-01      -233.47134575    622.998272    0.43531   -0.59552    0.00000    2    diag
    4      0.308D-01      0.189D-02      -233.47461330    621.811625    0.37837   -0.36720    0.00000    3    diag
    5      0.278D-02      0.949D-03      -233.47570085    621.691814    0.37973   -0.44985    0.00000    4    diag
    6      0.105D-02      0.215D-03      -233.47575073    621.786780    0.38238   -0.43701    0.00000    5    diag
    7      0.259D-03      0.797D-04      -233.47575864    621.765857    0.38291   -0.43742    0.00000    6    diag
    8      0.709D-04      0.685D-05      -233.47575871    621.773894    0.38264   -0.43879    0.00000    7    diag
    9      0.106D-04      0.186D-05      -233.47575872    621.774120    0.38278   -0.43840    0.00000    8    diag
   10      0.270D-05      0.489D-06      -233.47575872    621.774015    0.38283   -0.43837    0.00000    0    orth

 Final occupancy:  21

 !RKS STATE 1.1 Energy               -233.475758716856
 Nuclear energy                       198.77359127
 One-electron energy                 -709.12963265
 Two-electron energy                  310.88700741
 Density functional                   -34.00672475     B88=-32.49756512 P86= -1.50915962
 Virial quotient                       -1.01008211
 !RKS STATE 1.1 Dipole moment           0.38282889    -0.43837410     0.00000000
 Dipole moment /Debye                   0.97299025    -1.11416285     0.00000000

 Orbital energies:

         1.1          2.1          3.1          4.1          5.1          6.1          7.1          8.1          9.1         10.1
    -18.760405    -9.963945    -9.895431    -9.895414    -9.889828    -0.915005    -0.707419    -0.619264    -0.618249    -0.509344

        11.1         12.1         13.1         14.1         15.1         16.1         17.1         18.1         19.1         20.1
     -0.437664    -0.402711    -0.400778    -0.364545    -0.353143    -0.336412    -0.324247    -0.309479    -0.304998    -0.272867

        21.1         22.1         23.1
     -0.215567     0.023556     0.069656

 HOMO     21.1    -0.215567 =      -5.8659eV
 LUMO     22.1     0.023556 =       0.6410eV
 LUMO-HOMO         0.239123 =       6.5069eV


 **********************************************************************************************************************************
 DATASETS  * FILE   NREC   LENGTH (MB)   RECORD NAMES
              1      20       65.10       500      610      700      900      950      970     1000      129      960     1100   
                                          VAR    BASINP    GEOM    SYMINP    ZMAT    AOBASIS   BASIS     P2S    ABASIS      S 
                                         1400     1410     1200     1210     1080     1600     1650     1300     1700     1800   
                                           T        V       H0       H01     AOSYM     SMH    MOLCAS    ERIS     OPER     GRID   

              2       5        3.17       700     1000      520     1800     2100   
                                         GEOM     BASIS   MCVARS    GRID      RKS  

 PROGRAMS   *        TOTAL        KS       INT
 CPU TIMES  *        11.52      9.83      1.55
 REAL TIME  *        12.62 SEC
 DISK USED  *       165.03 MB      
 **********************************************************************************************************************************


 PROGRAM * Intrinsic Basis Bonding Analysis (IBBA)          Author: G. Knizia

 Molecular orbitals read from record     2100.2  Type=RKS/CANONICAL (state 1.1)
 Fock matrix read from record            2100.2  Type=RKS/TOTAL (state 1.1)
 Orbital energies read from record       2100.2  Type=RKS/CANONICAL (state 1.1)
 Density matrix read from record         2100.2  Type=RKS/CHARGE (state 1.1)

 Number of core orbitals:           5 (   5 )
 Number of closed-shell orbitals:  16 (  16 )

 Basis set MINAO-AUTO-PP generated.      Number of basis functions:   35 

 Polarized AO type:                A = (O Ot + (1-O)(1-Ot)) P12
 Orthogonalization method:         Symmetric (Loewdin)
 Localization functional:          L = sum[A,i] <i|n_A|i>^4 -> max

 Localization group 1:  21 orbitals, occupancy  2.000
 Iterative localization: IB/PM,    7 iter; Final gradient 0.28E-08

 Bond order analysis:       [THRPRINT= 0.020]

   CEN ATOM   CEN ATOM     WIBERG.BO      RENORM.BO
     1   C  -   2   C       0.994408       0.992276
     1   C  -   5   H       0.964140       0.986282
     1   C  -   6   H       0.959415       0.980478
     1   C  -   7   H       0.959415       0.980478

     2   C  -   1   C       0.994408       0.992276
     2   C  -   9   C       0.993125       0.972574
     2   C  -   8   C       0.993125       0.972574
     2   C  -   3   O       0.945149       0.949600

     3   O  -   2   C       0.945149       0.949600
     3   O  -   4   H       0.878981       0.975146
     3   O  -   8   C       0.030559       0.015707
     3   O  -   9   C       0.030559       0.015707

     4   H  -   3   O       0.878981       0.975146

     5   H  -   1   C       0.964140       0.986282

     6   H  -   1   C       0.959415       0.980478

     7   H  -   1   C       0.959415       0.980478

     8   C  -   2   C       0.993125       0.972574
     8   C  -  14   H       0.963464       0.981142
     8   C  -  10   H       0.960007       0.980216
     8   C  -  12   H       0.959376       0.979659
     8   C  -   3   O       0.030559       0.015707

     9   C  -   2   C       0.993125       0.972574
     9   C  -  15   H       0.963464       0.981142
     9   C  -  11   H       0.960007       0.980216
     9   C  -  13   H       0.959376       0.979659
     9   C  -   3   O       0.030559       0.015707

    10   H  -   8   C       0.960007       0.980216

    11   H  -   9   C       0.960007       0.980216

    12   H  -   8   C       0.959376       0.979659

    13   H  -   9   C       0.959376       0.979659

    14   H  -   8   C       0.963464       0.981142

    15   H  -   9   C       0.963464       0.981142


 Valency analysis:

   CEN ATOM   TOT.VALENCE
     1   C       3.941784
     2   C       3.937900
     3   O       1.958456
     4   H       0.899450
     5   H       0.984313
     6   H       0.981894
     7   H       0.981894
     8   C       3.944280
     9   C       3.944280
    10   H       0.981988
    11   H       0.981988
    12   H       0.983523
    13   H       0.983523
    14   H       0.985905
    15   H       0.985905

 Total charge composition:

   CEN ATOM         s          p       ELECTRONS ->P.CHARGE
     1   C       3.02096    3.36632      6.38728   -0.38728
     2   C       2.92424    2.83565      5.75989    0.24011
     3   O       3.63626    4.88687      8.52313   -0.52313
     4   H       0.68290                 0.68290    0.31710
     5   H       0.87475                 0.87475    0.12525
     6   H       0.86544                 0.86544    0.13456
     7   H       0.86544                 0.86544    0.13456
     8   C       3.02772    3.37416      6.40188   -0.40188
     9   C       3.02772    3.37416      6.40188   -0.40188
    10   H       0.86579                 0.86579    0.13421
    11   H       0.86579                 0.86579    0.13421
    12   H       0.87164                 0.87164    0.12836
    13   H       0.87164                 0.87164    0.12836
    14   H       0.88128                 0.88128    0.11872
    15   H       0.88128                 0.88128    0.11872

 Total charge composition, AO contributions:

   CEN ATOM SHL      SPHERICAL COMPONENTS
     1   C  1s       1.99123
     1   C  2s       1.02973
     1   C  2p       1.04354    1.15506    1.16772

     2   C  1s       1.99281
     2   C  2s       0.93143
     2   C  2p       1.01588    0.80403    1.01574

     3   O  1s       1.99716
     3   O  2s       1.63910
     3   O  2p       1.45399    1.48195    1.95093

     4   H  1s       0.68290

     5   H  1s       0.87475

     6   H  1s       0.86544

     7   H  1s       0.86544

     8   C  1s       1.99133
     8   C  2s       1.03638
     8   C  2p       1.13805    1.13995    1.09616

     9   C  1s       1.99133
     9   C  2s       1.03638
     9   C  2p       1.13805    1.13995    1.09616

    10   H  1s       0.86579

    11   H  1s       0.86579

    12   H  1s       0.87164

    13   H  1s       0.87164

    14   H  1s       0.88128

    15   H  1s       0.88128

 Summary of localized orbital composition:   [THRPRINT= 0.020]

   ORB  GRP  ORB.ENERGY      CENTERS/CHARGES
     1   1   -18.614001      O  3   2.000
     2   1    -9.874900      C  2   2.000
     3   1    -9.784873      C  8   2.000
     4   1    -9.784873      C  9   2.000
     5   1    -9.778502      C  1   2.000
     6   1    -0.693217      O  3   1.320   H  4   0.671
     7   1    -0.653860      O  3   1.268   C  2   0.713
     8   1    -0.517258      C  9   1.008   C  2   0.976
     9   1    -0.517258      C  8   1.008   C  2   0.976
    10   1    -0.516353      C  1   0.989   C  2   0.985   (other: 0.026)
    11   1    -0.480082      O  3   1.980   (other: 0.020)
    12   1    -0.453372      C  8   1.124   H 12   0.861
    13   1    -0.453372      C  9   1.124   H 13   0.861
    14   1    -0.452884      C  9   1.114   H 15   0.874
    15   1    -0.452884      C  8   1.114   H 14   0.874
    16   1    -0.448931      C  1   1.119   H  5   0.867
    17   1    -0.447413      C  9   1.132   H 11   0.857
    18   1    -0.447413      C  8   1.132   H 10   0.857
    19   1    -0.442275      C  1   1.131   H  6   0.857
    20   1    -0.442275      C  1   1.131   H  7   0.857
    21   1    -0.240719      O  3   1.951   (other: 0.049)

 Localized orbitals saved to record      2100.2  (orbital set 2)


 **********************************************************************************************************************************
 DATASETS  * FILE   NREC   LENGTH (MB)   RECORD NAMES
              1      20       65.10       500      610      700      900      950      970     1000      129      960     1100   
                                          VAR    BASINP    GEOM    SYMINP    ZMAT    AOBASIS   BASIS     P2S    ABASIS      S 
                                         1400     1410     1200     1210     1080     1600     1650     1300     1700     1800   
                                           T        V       H0       H01     AOSYM     SMH    MOLCAS    ERIS     OPER     GRID   

              2       5        3.24       700     1000      520     1800     2100   
                                         GEOM     BASIS   MCVARS    GRID      RKS  

 PROGRAMS   *        TOTAL      IBBA        KS       INT
 CPU TIMES  *        11.56      0.04      9.83      1.55
 REAL TIME  *        12.77 SEC
 DISK USED  *       165.03 MB      
 **********************************************************************************************************************************
 Molecular orbitals read from record     2100.2  Type=RKS/LOCAL(IBO)  
 Occupation numbers read from record     2100.2  Type=RKS/LOCAL(IBO)  
 Orbital energies read from record       2100.2  Type=RKS/LOCAL(IBO)  
 Redundancy group numbers read from rec  2100.2  Type=RKS/LOCAL(IBO)  

 IBBA/SV(P) energy=      0.000000000000

        KS-SCF  
   -233.47575872
 **********************************************************************************************************************************
 Molpro calculation terminated
