
 Primary working directories    : /local
 Secondary working directories  : /local
 Wavefunction directory         : /local/
 Main file repository           : /local/

 SHA1      : b4a5b34a9e711420743f49e6833241d17c61fb3c
 NAME      : 2099.9.b4a5b34
 ARCHNAME  : linux/x86_64_openmp
 FC        : /cm/shared/languages/GCC-6.1/bin/gfortran
 BLASLIB   : -lblas
 id        : simonbennie

 Nodes     nprocs
 node34-016    1

 Using customized tuning parameters: mindgm=1; mindgv=20; mindgc=4; mindgr=1; noblas=0; minvec=7
 default implementation of scratch files=df  

 memory,500,m
 geomtyp=xyz
 nosym
 noorient
 geometry={
 C         -1.53233        0.02247        0.00000
 C         -0.00192        0.01421        0.00000
 O          0.37239        1.40356        0.00000
 H          1.34248        1.44036        0.00000
 H         -1.92991       -0.99819        0.00000
 H         -1.90797        0.54382       -0.88653
 H         -1.90797        0.54382        0.88653
 C          0.54303       -0.66466       -1.26580
 C          0.54303       -0.66466        1.26580
 H          0.17836       -0.14752       -2.15943
 H          0.17836       -0.14752        2.15943
 H          0.23752       -1.71600       -1.32280
 H          0.23752       -1.71600        1.32280
 H          1.64084       -0.63767       -1.28032
 H          1.64084       -0.63767        1.28032
 }
 basis={ default,avdz }
 {ks,B3LYP5,direct;wf,42,1,0}
 {ibba,bonds=1}

 Variables initialized (895), CPU time= 0.00 sec
 Commands  initialized (725), CPU time= 0.02 sec, 591 directives.
 Default parameters read. Elapsed time= 0.08 sec

 Checking input...
 Passed
1


                                         ***  PROGRAM SYSTEM MOLPRO  ***
                                       Copyright, TTI GmbH Stuttgart, 2015
                                    Version 2099.9 linked May 26 2017 16:03:21


 **********************************************************************************************************************************
 LABEL *                                                                                 
  64 bit serial version                                                                  DATE: 12-Jun-17          TIME: 16:28:58  
 **********************************************************************************************************************************

 SHA1:             b4a5b34a9e711420743f49e6833241d17c61fb3c
 **********************************************************************************************************************************
 SETTING GEOMTYP        =    XYZ

 Variable memory set to  500000000 words,  buffer space 

 ZSYMEL=NOSYM

 SETTING BASIS          =    AVDZ


 Recomputing integrals since basis changed


 Using spherical harmonics

 Library entry C      S aug-cc-pVDZ          selected for orbital group  1
 Library entry C      P aug-cc-pVDZ          selected for orbital group  1
 Library entry C      D aug-cc-pVDZ          selected for orbital group  1
 Library entry O      S aug-cc-pVDZ          selected for orbital group  2
 Library entry O      P aug-cc-pVDZ          selected for orbital group  2
 Library entry O      D aug-cc-pVDZ          selected for orbital group  2
 Library entry H      S aug-cc-pVDZ          selected for orbital group  3
 Library entry H      P aug-cc-pVDZ          selected for orbital group  3


 PROGRAM * SEWARD (Integral evaluation for generally contracted gaussian basis sets)     Author: Roland Lindh, 1990

 Geometry written to block  1 of record 700


 Point group  C1  



 ATOMIC COORDINATES

 NR  ATOM    CHARGE       X              Y              Z

   1  C       6.00   -2.895684032    0.042462146    0.000000000
   2  C       6.00   -0.003628274    0.026853008    0.000000000
   3  O       8.00    0.703715112    2.652343999    0.000000000
   4  H       1.00    2.536919528    2.721885921    0.000000000
   5  H       1.00   -3.647001345   -1.886305720    0.000000000
   6  H       1.00   -3.605540754    1.027670861   -1.675298901
   7  H       1.00   -3.605540754    1.027670861    1.675298901
   8  C       6.00    1.026177977   -1.256025366   -2.392015328
   9  C       6.00    1.026177977   -1.256025366    2.392015328
  10  H       1.00    0.337051552   -0.278772398   -4.080731285
  11  H       1.00    0.337051552   -0.278772398    4.080731285
  12  H       1.00    0.448847749   -3.242770030   -2.499729718
  13  H       1.00    0.448847749   -3.242770030    2.499729718
  14  H       1.00    3.100738214   -1.205021658   -2.419454152
  15  H       1.00    3.100738214   -1.205021658    2.419454152

 Bond lengths in Bohr (Angstrom)

 1-2  2.892097881  1-5  2.069933136  1-6  2.069096224  1-7  2.069096224  2-3  2.719106031
     ( 1.530432290)     ( 1.095361444)     ( 1.094918569)     ( 1.094918569)     ( 1.438888946)

  2- 8  2.903104402   2- 9  2.903104402   3- 4  1.834522965   8-10  2.069222119   8-12  2.071730422
       ( 1.536256691)       ( 1.536256691)       ( 0.970787746)       ( 1.094985190)       ( 1.096312526)

  8-14  2.075368508   9-11  2.069222119   9-13  2.071730422   9-15  2.075368508
       ( 1.098237719)       ( 1.094985190)       ( 1.096312526)       ( 1.098237719)

 Bond angles

  1-2-3  104.76902697   1-2-8  110.92255387   1-2-9  110.92255387   2-1-5  110.97328220

  2- 1- 6  110.22090701   2- 1- 7  110.22090701   2- 3- 4  107.25071562   2- 8-10  110.21836376

  2- 8-12  111.57747468   2- 8-14  110.77023896   2- 9-11  110.21836376   2- 9-13  111.57747468

  2- 9-15  110.77023896   3- 2- 8  109.53648747   3- 2- 9  109.53648747   5- 1- 6  108.61190457

  5- 1- 7  108.61190457   6- 1- 7  108.12870271   8- 2- 9  110.96453384  10- 8-12  108.52192632

 10- 8-14  108.08997829  11- 9-13  108.52192632  11- 9-15  108.08997829  12- 8-14  107.54424578

 13- 9-15  107.54424578

 NUCLEAR CHARGE:                   42
 NUMBER OF PRIMITIVE AOS:         295
 NUMBER OF SYMMETRY AOS:          285
 NUMBER OF CONTRACTIONS:          205   ( 205A   )
 NUMBER OF CORE ORBITALS:           5   (   5A   )
 NUMBER OF VALENCE ORBITALS:       30   (  30A   )


 NUCLEAR REPULSION ENERGY  198.77359127


 Eigenvalues of metric

         1 0.151E-04 0.552E-04 0.579E-04 0.110E-03 0.111E-03 0.217E-03 0.237E-03 0.259E-03


 Contracted 2-electron integrals neglected if value below      1.0D-12
 AO integral compression algorithm  1   Integral accuracy      1.0D-12

     1203.503 MB (compressed) written to integral file ( 61.3%)


 NUMBER OF SORTED TWO-ELECTRON INTEGRALS:  222932170.     BUFFER LENGTH:  32768
 NUMBER OF SEGMENTS:  14  SEGMENT LENGTH:   15999503      RECORD LENGTH: 524288

 Memory used in sort:      16.56 MW

 SORT1 READ   245224724. AND WROTE   218324786. INTEGRALS IN    630 RECORDS. CPU TIME:     3.10 SEC, REAL TIME:     6.13 SEC
 SORT2 READ   218324786. AND WROTE   222932170. INTEGRALS IN   4591 RECORDS. CPU TIME:     4.64 SEC, REAL TIME:    10.39 SEC

 FILE SIZES:   FILE 1:  1235.3 MBYTE,  FILE 4:  2642.4 MBYTE,   TOTAL:   3877.7 MBYTE

 OPERATOR DM      FOR CENTER  0  COORDINATES:    0.000000    0.000000    0.000000


 **********************************************************************************************************************************
 DATASETS  * FILE   NREC   LENGTH (MB)   RECORD NAMES
              1      19     1149.90       500      610      700      900      950      970     1000      129      960     1100   
                                          VAR    BASINP    GEOM    SYMINP    ZMAT    AOBASIS   BASIS     P2S    ABASIS      S 
                                         1400     1410     1200     1210     1080     1600     1650     1300     1700   
                                           T        V       H0       H01     AOSYM     SMH    MOLCAS    ERIS     OPER   

 PROGRAMS   *        TOTAL       INT
 CPU TIMES  *        20.57     20.42
 REAL TIME  *        54.11 SEC
 DISK USED  *         3.88 GB      
 **********************************************************************************************************************************

 Density functional group B3LYP5=B88+DIRAC+LYP+VWN5
 Functional: B88(Automatically generated (new) B88)                            Gradient terms: 1
 Functional: DIRAC(Automatically generated (new) DIRAC)                        Gradient terms: 0
 Functional: LYP(Automatically generated (new) LYP)                            Gradient terms: 1
 Functional: VWN5(Automatically generated (new) VWN5)                          Gradient terms: 0
 Use grid at  1800.2


 Exact exchange will be calculated, factor:  0.2000

 Functional: B88                       Factor:  0.7200
 Functional: DIRAC                     Factor:  0.0800
 Functional: LYP                       Factor:  0.8100
 Functional: VWN5                      Factor:  0.1900

 Generated new metagrid on record  1800.2 with target accuracy 1.0D-06 and 53396 points in CPU time    1.6
 Computed new grid on record 1800.1 in CPU time    1.9
  167289 words reserved for DFT integration

 PROGRAM * RKS-SCF (Restricted closed shell Kohn-Sham)     Authors: W. Meyer, H.-J. Werner, P.J. Knowles, 1993

 NUMBER OF ELECTRONS:      21+   21-    SPACE SYMMETRY=1    SPIN SYMMETRY: Singlet 
 CONVERGENCE THRESHOLDS:    1.00E-05 (Density)    1.00E-06 (Energy)
 MAX. NUMBER OF ITERATIONS:       60
 INTERPOLATION TYPE:            DIIS
 INTERPOLATION STEPS:              2 (START)      1 (STEP)
 LEVEL SHIFTS:                  0.00 (CLOSED)  0.00 (OPEN) 



 Use fine grid record 1800.2 for energy threshold  1.0D-06
 Orbital guess generated from atomic densities. Full valence occupancy:   35

 Molecular orbital dump at record        2100.2

 Initial occupancy:  21

 ITERATION    DDIFF          GRAD             ENERGY        2-EL.EN.            DIPOLE MOMENTS         DIIS   ORB.
    1      0.000D+00      0.000D+00      -233.34957674    622.851131    0.69749   -0.80625    0.00000    0    start
    2      0.000D+00      0.713D-02      -233.20130059    588.466837   -0.27470   -0.13597    0.00000    1    diag
    3      0.259D-01      0.951D-02      -233.54911404    609.439620    0.36849   -0.65073    0.00000    2    diag
    4      0.139D-01      0.122D-02      -233.55348670    608.504891    0.32859   -0.49930    0.00000    3    diag
    5      0.176D-02      0.333D-03      -233.55380827    608.389915    0.32745   -0.55510    0.00000    4    diag
    6      0.524D-03      0.105D-03      -233.55384503    608.493477    0.32883   -0.54472    0.00000    5    diag
    7      0.158D-03      0.262D-04      -233.55384724    608.484284    0.32940   -0.54284    0.00000    6    diag
    8      0.619D-04      0.315D-05      -233.55384728    608.489681    0.32931   -0.54416    0.00000    7    diag
    9      0.729D-05      0.807D-06      -233.55384728    608.489946    0.32943   -0.54360    0.00000    0    orth

 Final occupancy:  21

 !RKS STATE 1.1 Energy               -233.553847279683
 Nuclear energy                       198.77359127
 One-electron energy                 -709.17862618
 Two-electron energy                  304.24497295
 SCF exchange energy                  -32.49912714     Factor= 0.2000
 Density functional                   -27.39378531     B88=-32.54451142 DIRAC=-29.32667779 LYP= -1.37225534 VWN5= -2.65303179
 Virial quotient                       -1.00642759
 !RKS STATE 1.1 Dipole moment           0.32943369    -0.54360173     0.00000000
 Dipole moment /Debye                   0.83728207    -1.38160728     0.00000000

 Orbital energies:

         1.1          2.1          3.1          4.1          5.1          6.1          7.1          8.1          9.1         10.1
    -19.142451   -10.240295   -10.174726   -10.174704   -10.169425    -1.020802    -0.788672    -0.692407    -0.691392    -0.569630

        11.1         12.1         13.1         14.1         15.1         16.1         17.1         18.1         19.1         20.1
     -0.489817    -0.452152    -0.449123    -0.412874    -0.398075    -0.380284    -0.366775    -0.356335    -0.348949    -0.321488

        21.1         22.1         23.1
     -0.273720    -0.014559     0.009754

 HOMO     21.1    -0.273720 =      -7.4483eV
 LUMO     22.1    -0.014559 =      -0.3962eV
 LUMO-HOMO         0.259161 =       7.0521eV


 **********************************************************************************************************************************
 DATASETS  * FILE   NREC   LENGTH (MB)   RECORD NAMES
              1      20     1151.61       500      610      700      900      950      970     1000      129      960     1100   
                                          VAR    BASINP    GEOM    SYMINP    ZMAT    AOBASIS   BASIS     P2S    ABASIS      S 
                                         1400     1410     1200     1210     1080     1600     1650     1300     1700     1800   
                                           T        V       H0       H01     AOSYM     SMH    MOLCAS    ERIS     OPER     GRID   

              2       5        3.87       700     1000      520     1800     2100   
                                         GEOM     BASIS   MCVARS    GRID      RKS  

 PROGRAMS   *        TOTAL        KS       INT
 CPU TIMES  *        80.25     59.68     20.42
 REAL TIME  *       115.70 SEC
 DISK USED  *         3.88 GB      
 **********************************************************************************************************************************


 PROGRAM * Intrinsic Basis Bonding Analysis (IBBA)          Author: G. Knizia

 Molecular orbitals read from record     2100.2  Type=RKS/CANONICAL (state 1.1)
 Fock matrix read from record            2100.2  Type=RKS/TOTAL (state 1.1)
 Orbital energies read from record       2100.2  Type=RKS/CANONICAL (state 1.1)
 Density matrix read from record         2100.2  Type=RKS/CHARGE (state 1.1)

 Number of core orbitals:           5 (   5 )
 Number of closed-shell orbitals:  16 (  16 )

 Basis set MINAO-AUTO-PP generated.      Number of basis functions:   35 

 Polarized AO type:                A = (O Ot + (1-O)(1-Ot)) P12
 Orthogonalization method:         Symmetric (Loewdin)
 Localization functional:          L = sum[A,i] <i|n_A|i>^4 -> max

 Localization group 1:  21 orbitals, occupancy  2.000
 Iterative localization: IB/PM,    7 iter; Final gradient 0.30E-08

 Bond order analysis:       [THRPRINT= 0.020]

   CEN ATOM   CEN ATOM     WIBERG.BO      RENORM.BO
     1   C  -   2   C       0.996478       0.994029
     1   C  -   5   H       0.963834       0.987162
     1   C  -   6   H       0.959099       0.981666
     1   C  -   7   H       0.959099       0.981666

     2   C  -   1   C       0.996478       0.994029
     2   C  -   9   C       0.995358       0.976559
     2   C  -   8   C       0.995358       0.976559
     2   C  -   3   O       0.931113       0.949794

     3   O  -   2   C       0.931113       0.949794
     3   O  -   4   H       0.861726       0.975990
     3   O  -   8   C       0.027416       0.014021
     3   O  -   9   C       0.027416       0.014021

     4   H  -   3   O       0.861726       0.975990

     5   H  -   1   C       0.963834       0.987162

     6   H  -   1   C       0.959099       0.981666

     7   H  -   1   C       0.959099       0.981666

     8   C  -   2   C       0.995358       0.976559
     8   C  -  14   H       0.963221       0.982389
     8   C  -  12   H       0.959616       0.981525
     8   C  -  10   H       0.959589       0.981501
     8   C  -   3   O       0.027416       0.014021

     9   C  -   2   C       0.995358       0.976559
     9   C  -  15   H       0.963221       0.982389
     9   C  -  13   H       0.959616       0.981525
     9   C  -  11   H       0.959589       0.981501
     9   C  -   3   O       0.027416       0.014021

    10   H  -   8   C       0.959589       0.981501

    11   H  -   9   C       0.959589       0.981501

    12   H  -   8   C       0.959616       0.981525

    13   H  -   9   C       0.959616       0.981525

    14   H  -   8   C       0.963221       0.982389

    15   H  -   9   C       0.963221       0.982389


 Valency analysis:

   CEN ATOM   TOT.VALENCE
     1   C       3.938018
     2   C       3.928348
     3   O       1.914241
     4   H       0.881529
     5   H       0.982388
     6   H       0.979692
     7   H       0.979692
     8   C       3.940588
     9   C       3.940588
    10   H       0.979707
    11   H       0.979707
    12   H       0.981589
    13   H       0.981589
    14   H       0.983770
    15   H       0.983770

 Total charge composition:

   CEN ATOM         s          p       ELECTRONS ->P.CHARGE
     1   C       3.04247    3.36779      6.41026   -0.41026
     2   C       2.94042    2.79826      5.73868    0.26132
     3   O       3.65085    4.92642      8.57727   -0.57727
     4   H       0.65580                 0.65580    0.34420
     5   H       0.86729                 0.86729    0.13271
     6   H       0.85749                 0.85749    0.14251
     7   H       0.85749                 0.85749    0.14251
     8   C       3.04895    3.37444      6.42339   -0.42339
     9   C       3.04895    3.37444      6.42339   -0.42339
    10   H       0.85754                 0.85754    0.14246
    11   H       0.85754                 0.85754    0.14246
    12   H       0.86431                 0.86431    0.13569
    13   H       0.86431                 0.86431    0.13569
    14   H       0.87260                 0.87260    0.12740
    15   H       0.87260                 0.87260    0.12740

 Total charge composition, AO contributions:

   CEN ATOM SHL      SPHERICAL COMPONENTS
     1   C  1s       1.99118
     1   C  2s       1.05130
     1   C  2p       1.03667    1.15914    1.17198

     2   C  1s       1.99280
     2   C  2s       0.94762
     2   C  2p       1.00644    0.78255    1.00927

     3   O  1s       1.99714
     3   O  2s       1.65371
     3   O  2p       1.47442    1.49527    1.95674

     4   H  1s       0.65580

     5   H  1s       0.86729

     6   H  1s       0.85749

     7   H  1s       0.85749

     8   C  1s       1.99128
     8   C  2s       1.05768
     8   C  2p       1.14156    1.14098    1.09190

     9   C  1s       1.99128
     9   C  2s       1.05768
     9   C  2p       1.14156    1.14098    1.09190

    10   H  1s       0.85754

    11   H  1s       0.85754

    12   H  1s       0.86431

    13   H  1s       0.86431

    14   H  1s       0.87260

    15   H  1s       0.87260

 Summary of localized orbital composition:   [THRPRINT= 0.020]

   ORB  GRP  ORB.ENERGY      CENTERS/CHARGES
     1   1   -18.981249      O  3   2.000
     2   1   -10.148150      C  2   2.000
     3   1   -10.059479      C  8   2.000
     4   1   -10.059479      C  9   2.000
     5   1   -10.053404      C  1   2.000
     6   1    -0.763983      O  3   1.346   H  4   0.644
     7   1    -0.721216      O  3   1.288   C  2   0.694
     8   1    -0.580406      O  3   1.982
     9   1    -0.574893      C  9   1.007   C  2   0.978
    10   1    -0.574893      C  8   1.007   C  2   0.978
    11   1    -0.574278      C  1   0.990   C  2   0.986   (other: 0.023)
    12   1    -0.506472      C  9   1.131   H 13   0.855
    13   1    -0.506472      C  8   1.131   H 12   0.855
    14   1    -0.504538      C  9   1.123   H 15   0.866
    15   1    -0.504538      C  8   1.123   H 14   0.866
    16   1    -0.502209      C  1   1.126   H  5   0.860
    17   1    -0.500380      C  8   1.140   H 10   0.850
    18   1    -0.500380      C  9   1.140   H 11   0.850
    19   1    -0.495757      C  1   1.139   H  7   0.850
    20   1    -0.495757      C  1   1.139   H  6   0.850
    21   1    -0.306163      O  3   1.957   (other: 0.043)

 Localized orbitals saved to record      2100.2  (orbital set 2)


 **********************************************************************************************************************************
 DATASETS  * FILE   NREC   LENGTH (MB)   RECORD NAMES
              1      20     1151.61       500      610      700      900      950      970     1000      129      960     1100   
                                          VAR    BASINP    GEOM    SYMINP    ZMAT    AOBASIS   BASIS     P2S    ABASIS      S 
                                         1400     1410     1200     1210     1080     1600     1650     1300     1700     1800   
                                           T        V       H0       H01     AOSYM     SMH    MOLCAS    ERIS     OPER     GRID   

              2       5        4.21       700     1000      520     1800     2100   
                                         GEOM     BASIS   MCVARS    GRID      RKS  

 PROGRAMS   *        TOTAL      IBBA        KS       INT
 CPU TIMES  *        80.31      0.06     59.68     20.42
 REAL TIME  *       115.86 SEC
 DISK USED  *         3.88 GB      
 **********************************************************************************************************************************
 Molecular orbitals read from record     2100.2  Type=RKS/LOCAL(IBO)  
 Occupation numbers read from record     2100.2  Type=RKS/LOCAL(IBO)  
 Orbital energies read from record       2100.2  Type=RKS/LOCAL(IBO)  
 Redundancy group numbers read from rec  2100.2  Type=RKS/LOCAL(IBO)  

 IBBA/aug-cc-pVDZ energy=      0.000000000000

        KS-SCF  
   -233.55384728
 **********************************************************************************************************************************
 Molpro calculation terminated
