
 Primary working directories    : /local
 Secondary working directories  : /local
 Wavefunction directory         : /local/
 Main file repository           : /local/

 SHA1      : b4a5b34a9e711420743f49e6833241d17c61fb3c
 NAME      : 2099.9.b4a5b34
 ARCHNAME  : linux/x86_64_openmp
 FC        : /cm/shared/languages/GCC-6.1/bin/gfortran
 BLASLIB   : -lblas
 id        : simonbennie

 Nodes     nprocs
 node35-048    1

 Using customized tuning parameters: mindgm=1; mindgv=20; mindgc=4; mindgr=1; noblas=0; minvec=7
 default implementation of scratch files=df  

 memory,500,m
 geomtyp=xyz
 nosym
 noorient
 geometry={
 C         -1.53233        0.02247        0.00000
 C         -0.00192        0.01421        0.00000
 O          0.37239        1.40356        0.00000
 H          1.34248        1.44036        0.00000
 H         -1.92991       -0.99819        0.00000
 H         -1.90797        0.54382       -0.88653
 H         -1.90797        0.54382        0.88653
 C          0.54303       -0.66466       -1.26580
 C          0.54303       -0.66466        1.26580
 H          0.17836       -0.14752       -2.15943
 H          0.17836       -0.14752        2.15943
 H          0.23752       -1.71600       -1.32280
 H          0.23752       -1.71600        1.32280
 H          1.64084       -0.63767       -1.28032
 H          1.64084       -0.63767        1.28032
 }
 basis={ default,avdz }
 {uks,B97R,direct;wf,42,1,0}
 {ibba,bonds=1}

 Variables initialized (895), CPU time= 0.00 sec
 Commands  initialized (725), CPU time= 0.02 sec, 591 directives.
 Default parameters read. Elapsed time= 0.09 sec

 Checking input...
 Passed
1


                                         ***  PROGRAM SYSTEM MOLPRO  ***
                                       Copyright, TTI GmbH Stuttgart, 2015
                                    Version 2099.9 linked May 26 2017 16:03:21


 **********************************************************************************************************************************
 LABEL *                                                                                 
  64 bit serial version                                                                  DATE: 12-Jun-17          TIME: 16:35:57  
 **********************************************************************************************************************************

 SHA1:             b4a5b34a9e711420743f49e6833241d17c61fb3c
 **********************************************************************************************************************************
 SETTING GEOMTYP        =    XYZ

 Variable memory set to  500000000 words,  buffer space 

 ZSYMEL=NOSYM

 SETTING BASIS          =    AVDZ


 Recomputing integrals since basis changed


 Using spherical harmonics

 Library entry C      S aug-cc-pVDZ          selected for orbital group  1
 Library entry C      P aug-cc-pVDZ          selected for orbital group  1
 Library entry C      D aug-cc-pVDZ          selected for orbital group  1
 Library entry O      S aug-cc-pVDZ          selected for orbital group  2
 Library entry O      P aug-cc-pVDZ          selected for orbital group  2
 Library entry O      D aug-cc-pVDZ          selected for orbital group  2
 Library entry H      S aug-cc-pVDZ          selected for orbital group  3
 Library entry H      P aug-cc-pVDZ          selected for orbital group  3


 PROGRAM * SEWARD (Integral evaluation for generally contracted gaussian basis sets)     Author: Roland Lindh, 1990

 Geometry written to block  1 of record 700


 Point group  C1  



 ATOMIC COORDINATES

 NR  ATOM    CHARGE       X              Y              Z

   1  C       6.00   -2.895684032    0.042462146    0.000000000
   2  C       6.00   -0.003628274    0.026853008    0.000000000
   3  O       8.00    0.703715112    2.652343999    0.000000000
   4  H       1.00    2.536919528    2.721885921    0.000000000
   5  H       1.00   -3.647001345   -1.886305720    0.000000000
   6  H       1.00   -3.605540754    1.027670861   -1.675298901
   7  H       1.00   -3.605540754    1.027670861    1.675298901
   8  C       6.00    1.026177977   -1.256025366   -2.392015328
   9  C       6.00    1.026177977   -1.256025366    2.392015328
  10  H       1.00    0.337051552   -0.278772398   -4.080731285
  11  H       1.00    0.337051552   -0.278772398    4.080731285
  12  H       1.00    0.448847749   -3.242770030   -2.499729718
  13  H       1.00    0.448847749   -3.242770030    2.499729718
  14  H       1.00    3.100738214   -1.205021658   -2.419454152
  15  H       1.00    3.100738214   -1.205021658    2.419454152

 Bond lengths in Bohr (Angstrom)

 1-2  2.892097881  1-5  2.069933136  1-6  2.069096224  1-7  2.069096224  2-3  2.719106031
     ( 1.530432290)     ( 1.095361444)     ( 1.094918569)     ( 1.094918569)     ( 1.438888946)

  2- 8  2.903104402   2- 9  2.903104402   3- 4  1.834522965   8-10  2.069222119   8-12  2.071730422
       ( 1.536256691)       ( 1.536256691)       ( 0.970787746)       ( 1.094985190)       ( 1.096312526)

  8-14  2.075368508   9-11  2.069222119   9-13  2.071730422   9-15  2.075368508
       ( 1.098237719)       ( 1.094985190)       ( 1.096312526)       ( 1.098237719)

 Bond angles

  1-2-3  104.76902697   1-2-8  110.92255387   1-2-9  110.92255387   2-1-5  110.97328220

  2- 1- 6  110.22090701   2- 1- 7  110.22090701   2- 3- 4  107.25071562   2- 8-10  110.21836376

  2- 8-12  111.57747468   2- 8-14  110.77023896   2- 9-11  110.21836376   2- 9-13  111.57747468

  2- 9-15  110.77023896   3- 2- 8  109.53648747   3- 2- 9  109.53648747   5- 1- 6  108.61190457

  5- 1- 7  108.61190457   6- 1- 7  108.12870271   8- 2- 9  110.96453384  10- 8-12  108.52192632

 10- 8-14  108.08997829  11- 9-13  108.52192632  11- 9-15  108.08997829  12- 8-14  107.54424578

 13- 9-15  107.54424578

 NUCLEAR CHARGE:                   42
 NUMBER OF PRIMITIVE AOS:         295
 NUMBER OF SYMMETRY AOS:          285
 NUMBER OF CONTRACTIONS:          205   ( 205A   )
 NUMBER OF CORE ORBITALS:           5   (   5A   )
 NUMBER OF VALENCE ORBITALS:       30   (  30A   )


 NUCLEAR REPULSION ENERGY  198.77359127


 Eigenvalues of metric

         1 0.151E-04 0.552E-04 0.579E-04 0.110E-03 0.111E-03 0.217E-03 0.237E-03 0.259E-03


 Contracted 2-electron integrals neglected if value below      1.0D-12
 AO integral compression algorithm  1   Integral accuracy      1.0D-12

     1203.503 MB (compressed) written to integral file ( 61.3%)


 NUMBER OF SORTED TWO-ELECTRON INTEGRALS:  222932170.     BUFFER LENGTH:  32768
 NUMBER OF SEGMENTS:  14  SEGMENT LENGTH:   15999503      RECORD LENGTH: 524288

 Memory used in sort:      16.56 MW

 SORT1 READ   245224724. AND WROTE   218324786. INTEGRALS IN    630 RECORDS. CPU TIME:     3.40 SEC, REAL TIME:     6.98 SEC
 SORT2 READ   218324786. AND WROTE   222932170. INTEGRALS IN   4591 RECORDS. CPU TIME:     5.06 SEC, REAL TIME:    31.92 SEC

 FILE SIZES:   FILE 1:  1235.3 MBYTE,  FILE 4:  2642.4 MBYTE,   TOTAL:   3877.7 MBYTE

 OPERATOR DM      FOR CENTER  0  COORDINATES:    0.000000    0.000000    0.000000


 **********************************************************************************************************************************
 DATASETS  * FILE   NREC   LENGTH (MB)   RECORD NAMES
              1      19     1149.90       500      610      700      900      950      970     1000      129      960     1100   
                                          VAR    BASINP    GEOM    SYMINP    ZMAT    AOBASIS   BASIS     P2S    ABASIS      S 
                                         1400     1410     1200     1210     1080     1600     1650     1300     1700   
                                           T        V       H0       H01     AOSYM     SMH    MOLCAS    ERIS     OPER   

 PROGRAMS   *        TOTAL       INT
 CPU TIMES  *        21.45     21.31
 REAL TIME  *        55.61 SEC
 DISK USED  *         3.88 GB      
 **********************************************************************************************************************************

 Density functional group B97R=B97RDF
 Functional: B97RDF(Automatically generated (new) B97RDF)                      Gradient terms: 1
 Use grid at  1800.2


 Exact exchange will be calculated, factor:  0.2100

 Functional: B97RDF                    Factor:  1.0000

 Generated new metagrid on record  1800.2 with target accuracy 1.0D-06 and 53396 points in CPU time    1.8
 Computed new grid on record 1800.1 in CPU time    2.0
  167289 words reserved for DFT integration

 PROGRAM * UKS-SCF (Unrestricted Kohn-Sham)     Authors: W. Meyer, H.-J. Werner, P.J. Knowles, 1993

 NUMBER OF ELECTRONS:      21+   21-    SPACE SYMMETRY=1    SPIN SYMMETRY: Singlet 
 CONVERGENCE THRESHOLDS:    1.00E-05 (Density)    1.00E-06 (Energy)
 MAX. NUMBER OF ITERATIONS:       60
 INTERPOLATION TYPE:            DIIS
 INTERPOLATION STEPS:              2 (START)      1 (STEP)
 LEVEL SHIFTS:                 -0.20 (ALPHA)  -0.20 (BETA) 



 Use fine grid record 1800.2 for energy threshold  1.0D-06
 Orbital guess generated from atomic densities. Full valence occupancy:   35

 Molecular orbital dump at record        2200.2

 Initial alpha occupation  21
 Initial beta  occupation  21

 ITERATION    DDIFF          GRAD             ENERGY        2-EL.EN.            DIPOLE MOMENTS         DIIS
    1      0.000D+00      0.000D+00      -233.44896870    621.231741    0.68684   -0.77769    0.00000    0
    2      0.157D-01      0.284D-02      -233.60298960    603.992440    0.24739   -0.48797    0.00000    1
    3      0.596D-02      0.127D-02      -233.62742606    608.199198    0.35247   -0.57193    0.00000    2
    4      0.140D-02      0.201D-03      -233.62840069    607.966345    0.33666   -0.52868    0.00000    3
    5      0.104D-02      0.944D-04      -233.62875123    607.886007    0.33191   -0.53389    0.00000    4
    6      0.536D-03      0.241D-04      -233.62879829    607.868445    0.33037   -0.53167    0.00000    5
    7      0.138D-03      0.792D-05      -233.62880148    607.840067    0.32898   -0.53202    0.00000    6
    8      0.558D-04      0.393D-05      -233.62880207    607.846510    0.32891   -0.53257    0.00000    7
    9      0.159D-04      0.656D-06      -233.62880211    607.846517    0.32890   -0.53235    0.00000    6
   10      0.345D-05      0.234D-06      -233.62880212    607.845757    0.32883   -0.53244    0.00000    7
   11      0.150D-05      0.822D-07      -233.62880212    607.846056    0.32883   -0.53245    0.00000    7

 Final alpha occupancy:  21
 Final beta  occupancy:  21

 !UKS STATE 1.1 Energy               -233.628802116153
 Nuclear energy                       198.77359127
 One-electron energy                 -709.18387999
 Two-electron energy                  303.92302800
 Density functional                   -27.14154140     B97RDF=-27.14154140
 Virial quotient                       -1.00696912
 !UKS STATE 1.1 Dipole moment           0.32882858    -0.53244864     0.00000000
 Dipole moment /Debye                   0.83574414    -1.35326082     0.00000000

 Orbital energies for positive spin:

         1.1          2.1          3.1          4.1          5.1          6.1          7.1          8.1          9.1         10.1
    -19.160303   -10.254092   -10.187132   -10.187110   -10.181985    -1.029068    -0.794584    -0.697122    -0.696197    -0.573236

        11.1         12.1         13.1         14.1         15.1         16.1         17.1         18.1         19.1         20.1
     -0.492568    -0.454657    -0.451424    -0.414804    -0.399679    -0.381723    -0.368096    -0.357724    -0.350049    -0.322349

        21.1         22.1         23.1
     -0.274693    -0.007202     0.017790

 Orbital energies for negative spin:

         1.1          2.1          3.1          4.1          5.1          6.1          7.1          8.1          9.1         10.1
    -19.160303   -10.254092   -10.187132   -10.187110   -10.181985    -1.029068    -0.794584    -0.697122    -0.696197    -0.573236

        11.1         12.1         13.1         14.1         15.1         16.1         17.1         18.1         19.1         20.1
     -0.492568    -0.454657    -0.451424    -0.414804    -0.399679    -0.381723    -0.368096    -0.357724    -0.350049    -0.322349

        21.1         22.1         23.1
     -0.274693    -0.007202     0.017790

 HOMO     21.1    -0.274693 =      -7.4748eV
 LUMO     22.1    -0.007202 =      -0.1960eV
 LUMO-HOMO         0.267490 =       7.2788eV

 EXPECTATION VALUE OF S**2:            -0.00000000

 Natural orbitals saved to record    2200.2 (Orbital set 3)

 Orbital spaces for UNO-CAS (Min. occupation: 0.020  Max. occupation: 1.980):

 Closed:       21
 Active:        0


 **********************************************************************************************************************************
 DATASETS  * FILE   NREC   LENGTH (MB)   RECORD NAMES
              1      20     1151.61       500      610      700      900      950      970     1000      129      960     1100   
                                          VAR    BASINP    GEOM    SYMINP    ZMAT    AOBASIS   BASIS     P2S    ABASIS      S 
                                         1400     1410     1200     1210     1080     1600     1650     1300     1700     1800   
                                           T        V       H0       H01     AOSYM     SMH    MOLCAS    ERIS     OPER     GRID   

              2       5        4.72       700     1000      520     1800     2200   
                                         GEOM     BASIS   MCVARS    GRID      UKS  

 PROGRAMS   *        TOTAL       UKS       INT
 CPU TIMES  *       141.67    120.22     21.31
 REAL TIME  *       179.59 SEC
 DISK USED  *         3.88 GB      
 **********************************************************************************************************************************


 PROGRAM * Intrinsic Basis Bonding Analysis (IBBA)          Author: G. Knizia

 Molecular orbitals read from record     2200.2  Type=UKS/ALPHA (state 1.1)
 Fock matrix read from record            2200.2  Type=UKS/TOTAL (state 1.1)
 Orbital energies read from record       2200.2  Type=UKS/ALPHA (state 1.1)
 Density matrix read from record         2200.2  Type=UKS/CHARGE (state 1.1)

 Number of core orbitals:           5 (   5 )
 Number of closed-shell orbitals:  16 (  16 )

 Basis set MINAO-AUTO-PP generated.      Number of basis functions:   35 

 Polarized AO type:                A = (O Ot + (1-O)(1-Ot)) P12
 Orthogonalization method:         Symmetric (Loewdin)
 Localization functional:          L = sum[A,i] <i|n_A|i>^4 -> max

 Localization group 1:  21 orbitals, occupancy  2.000
 Iterative localization: IB/PM,    7 iter; Final gradient 0.29E-08

 Bond order analysis:       [THRPRINT= 0.020]

   CEN ATOM   CEN ATOM     WIBERG.BO      RENORM.BO
     1   C  -   2   C       0.996631       0.993759
     1   C  -   5   H       0.963437       0.987219
     1   C  -   6   H       0.958556       0.981487
     1   C  -   7   H       0.958556       0.981487

     2   C  -   1   C       0.996631       0.993759
     2   C  -   9   C       0.995344       0.976106
     2   C  -   8   C       0.995344       0.976106
     2   C  -   3   O       0.932510       0.949443

     3   O  -   2   C       0.932510       0.949443
     3   O  -   4   H       0.860792       0.976240
     3   O  -   8   C       0.027568       0.014094
     3   O  -   9   C       0.027568       0.014094

     4   H  -   3   O       0.860792       0.976240

     5   H  -   1   C       0.963437       0.987219

     6   H  -   1   C       0.958556       0.981487

     7   H  -   1   C       0.958556       0.981487

     8   C  -   2   C       0.995344       0.976106
     8   C  -  14   H       0.962770       0.982211
     8   C  -  12   H       0.959207       0.981487
     8   C  -  10   H       0.959079       0.981344
     8   C  -   3   O       0.027568       0.014094

     9   C  -   2   C       0.995344       0.976106
     9   C  -  15   H       0.962770       0.982211
     9   C  -  13   H       0.959207       0.981487
     9   C  -  11   H       0.959079       0.981344
     9   C  -   3   O       0.027568       0.014094

    10   H  -   8   C       0.959079       0.981344

    11   H  -   9   C       0.959079       0.981344

    12   H  -   8   C       0.959207       0.981487

    13   H  -   9   C       0.959207       0.981487

    14   H  -   8   C       0.962770       0.982211

    15   H  -   9   C       0.962770       0.982211


 Valency analysis:

   CEN ATOM   TOT.VALENCE
     1   C       3.937112
     2   C       3.929771
     3   O       1.915269
     4   H       0.880508
     5   H       0.981962
     6   H       0.979277
     7   H       0.979277
     8   C       3.939759
     9   C       3.939759
    10   H       0.979320
    11   H       0.979320
    12   H       0.981199
    13   H       0.981199
    14   H       0.983427
    15   H       0.983427

 Total charge composition:

   CEN ATOM         s          p       ELECTRONS ->P.CHARGE
     1   C       3.04513    3.36969      6.41482   -0.41482
     2   C       2.94271    2.79822      5.74092    0.25908
     3   O       3.65295    4.92299      8.57594   -0.57594
     4   H       0.65432                 0.65432    0.34568
     5   H       0.86570                 0.86570    0.13430
     6   H       0.85604                 0.85604    0.14396
     7   H       0.85604                 0.85604    0.14396
     8   C       3.05152    3.37625      6.42777   -0.42777
     9   C       3.05152    3.37625      6.42777   -0.42777
    10   H       0.85619                 0.85619    0.14381
    11   H       0.85619                 0.85619    0.14381
    12   H       0.86288                 0.86288    0.13712
    13   H       0.86288                 0.86288    0.13712
    14   H       0.87126                 0.87126    0.12874
    15   H       0.87126                 0.87126    0.12874

 Total charge composition, AO contributions:

   CEN ATOM SHL      SPHERICAL COMPONENTS
     1   C  1s       1.99105
     1   C  2s       1.05409
     1   C  2p       1.03707    1.16003    1.17259

     2   C  1s       1.99268
     2   C  2s       0.95003
     2   C  2p       1.00575    0.78418    1.00829

     3   O  1s       1.99711
     3   O  2s       1.65583
     3   O  2p       1.47451    1.49204    1.95643

     4   H  1s       0.65432

     5   H  1s       0.86570

     6   H  1s       0.85604

     7   H  1s       0.85604

     8   C  1s       1.99115
     8   C  2s       1.06038
     8   C  2p       1.14219    1.14172    1.09234

     9   C  1s       1.99115
     9   C  2s       1.06038
     9   C  2p       1.14219    1.14172    1.09234

    10   H  1s       0.85619

    11   H  1s       0.85619

    12   H  1s       0.86288

    13   H  1s       0.86288

    14   H  1s       0.87126

    15   H  1s       0.87126

 Summary of localized orbital composition:   [THRPRINT= 0.020]

   ORB  GRP  ORB.ENERGY      CENTERS/CHARGES
     1   1   -18.997457      O  3   2.000
     2   1   -10.161599      C  2   2.000
     3   1   -10.071340      C  9   2.000
     4   1   -10.071340      C  8   2.000
     5   1   -10.065406      C  1   2.000
     6   1    -0.768039      O  3   1.348   H  4   0.643
     7   1    -0.724225      O  3   1.286   C  2   0.696
     8   1    -0.588917      O  3   1.982
     9   1    -0.577740      C  8   1.008   C  2   0.977
    10   1    -0.577740      C  9   1.008   C  2   0.977
    11   1    -0.577254      C  1   0.991   C  2   0.986   (other: 0.023)
    12   1    -0.508937      C  8   1.133   H 12   0.853
    13   1    -0.508937      C  9   1.133   H 13   0.853
    14   1    -0.506993      C  8   1.124   H 14   0.864
    15   1    -0.506993      C  9   1.124   H 15   0.864
    16   1    -0.504801      C  1   1.128   H  5   0.859
    17   1    -0.502945      C  9   1.141   H 11   0.848
    18   1    -0.502945      C  8   1.141   H 10   0.848
    19   1    -0.498476      C  1   1.141   H  6   0.848
    20   1    -0.498476      C  1   1.141   H  7   0.848
    21   1    -0.307999      O  3   1.956   (other: 0.044)

 Localized orbitals saved to record      2200.2  (orbital set 4)


 **********************************************************************************************************************************
 DATASETS  * FILE   NREC   LENGTH (MB)   RECORD NAMES
              1      20     1151.61       500      610      700      900      950      970     1000      129      960     1100   
                                          VAR    BASINP    GEOM    SYMINP    ZMAT    AOBASIS   BASIS     P2S    ABASIS      S 
                                         1400     1410     1200     1210     1080     1600     1650     1300     1700     1800   
                                           T        V       H0       H01     AOSYM     SMH    MOLCAS    ERIS     OPER     GRID   

              2       5        5.06       700     1000      520     1800     2200   
                                         GEOM     BASIS   MCVARS    GRID      UKS  

 PROGRAMS   *        TOTAL      IBBA       UKS       INT
 CPU TIMES  *       141.74      0.06    120.22     21.31
 REAL TIME  *       179.79 SEC
 DISK USED  *         3.88 GB      
 **********************************************************************************************************************************
 Molecular orbitals read from record     2200.2  Type=UKS/LOCAL(IBO)  
 Occupation numbers read from record     2200.2  Type=UKS/LOCAL(IBO)  
 Orbital energies read from record       2200.2  Type=UKS/LOCAL(IBO)  
 Redundancy group numbers read from rec  2200.2  Type=UKS/BETA (state 1.1)

 IBBA/aug-cc-pVDZ energy=      0.000000000000

        UKS-SCF 
   -233.62880212
 **********************************************************************************************************************************
 Molpro calculation terminated
