
 Primary working directories    : /local
 Secondary working directories  : /local
 Wavefunction directory         : /local/
 Main file repository           : /local/

 SHA1      : b4a5b34a9e711420743f49e6833241d17c61fb3c
 NAME      : 2099.9.b4a5b34
 ARCHNAME  : linux/x86_64_openmp
 FC        : /cm/shared/languages/GCC-6.1/bin/gfortran
 BLASLIB   : -lblas
 id        : simonbennie

 Nodes     nprocs
 node33-045    1

 Using customized tuning parameters: mindgm=1; mindgv=20; mindgc=4; mindgr=1; noblas=0; minvec=7
 default implementation of scratch files=df  

 memory,500,m
 geomtyp=xyz
 nosym
 noorient
 geometry={
 C         -1.53233        0.02247        0.00000
 C         -0.00192        0.01421        0.00000
 O          0.37239        1.40356        0.00000
 H          1.34248        1.44036        0.00000
 H         -1.92991       -0.99819        0.00000
 H         -1.90797        0.54382       -0.88653
 H         -1.90797        0.54382        0.88653
 C          0.54303       -0.66466       -1.26580
 C          0.54303       -0.66466        1.26580
 H          0.17836       -0.14752       -2.15943
 H          0.17836       -0.14752        2.15943
 H          0.23752       -1.71600       -1.32280
 H          0.23752       -1.71600        1.32280
 H          1.64084       -0.63767       -1.28032
 H          1.64084       -0.63767        1.28032
 }
 basis={ default,avtz }
 {ks,VS99,direct;wf,42,1,0}
 {ibba,bonds=1}

 Variables initialized (895), CPU time= 0.00 sec
 Commands  initialized (725), CPU time= 0.02 sec, 591 directives.
 Default parameters read. Elapsed time= 4.11 sec

 Checking input...
 Passed
1


                                         ***  PROGRAM SYSTEM MOLPRO  ***
                                       Copyright, TTI GmbH Stuttgart, 2015
                                    Version 2099.9 linked May 26 2017 16:03:21


 **********************************************************************************************************************************
 LABEL *                                                                                 
  64 bit serial version                                                                  DATE: 12-Jun-17          TIME: 14:19:10  
 **********************************************************************************************************************************

 SHA1:             b4a5b34a9e711420743f49e6833241d17c61fb3c
 **********************************************************************************************************************************
 SETTING GEOMTYP        =    XYZ

 Variable memory set to  500000000 words,  buffer space 

 ZSYMEL=NOSYM

 SETTING BASIS          =    AVTZ


 Recomputing integrals since basis changed


 Using spherical harmonics

 Library entry C      S aug-cc-pVTZ          selected for orbital group  1
 Library entry C      P aug-cc-pVTZ          selected for orbital group  1
 Library entry C      D aug-cc-pVTZ          selected for orbital group  1
 Library entry C      F aug-cc-pVTZ          selected for orbital group  1
 Library entry O      S aug-cc-pVTZ          selected for orbital group  2
 Library entry O      P aug-cc-pVTZ          selected for orbital group  2
 Library entry O      D aug-cc-pVTZ          selected for orbital group  2
 Library entry O      F aug-cc-pVTZ          selected for orbital group  2
 Library entry H      S aug-cc-pVTZ          selected for orbital group  3
 Library entry H      P aug-cc-pVTZ          selected for orbital group  3
 Library entry H      D aug-cc-pVTZ          selected for orbital group  3


 PROGRAM * SEWARD (Integral evaluation for generally contracted gaussian basis sets)     Author: Roland Lindh, 1990

 Geometry written to block  1 of record 700


 Point group  C1  



 ATOMIC COORDINATES

 NR  ATOM    CHARGE       X              Y              Z

   1  C       6.00   -2.895684032    0.042462146    0.000000000
   2  C       6.00   -0.003628274    0.026853008    0.000000000
   3  O       8.00    0.703715112    2.652343999    0.000000000
   4  H       1.00    2.536919528    2.721885921    0.000000000
   5  H       1.00   -3.647001345   -1.886305720    0.000000000
   6  H       1.00   -3.605540754    1.027670861   -1.675298901
   7  H       1.00   -3.605540754    1.027670861    1.675298901
   8  C       6.00    1.026177977   -1.256025366   -2.392015328
   9  C       6.00    1.026177977   -1.256025366    2.392015328
  10  H       1.00    0.337051552   -0.278772398   -4.080731285
  11  H       1.00    0.337051552   -0.278772398    4.080731285
  12  H       1.00    0.448847749   -3.242770030   -2.499729718
  13  H       1.00    0.448847749   -3.242770030    2.499729718
  14  H       1.00    3.100738214   -1.205021658   -2.419454152
  15  H       1.00    3.100738214   -1.205021658    2.419454152

 Bond lengths in Bohr (Angstrom)

 1-2  2.892097881  1-5  2.069933136  1-6  2.069096224  1-7  2.069096224  2-3  2.719106031
     ( 1.530432290)     ( 1.095361444)     ( 1.094918569)     ( 1.094918569)     ( 1.438888946)

  2- 8  2.903104402   2- 9  2.903104402   3- 4  1.834522965   8-10  2.069222119   8-12  2.071730422
       ( 1.536256691)       ( 1.536256691)       ( 0.970787746)       ( 1.094985190)       ( 1.096312526)

  8-14  2.075368508   9-11  2.069222119   9-13  2.071730422   9-15  2.075368508
       ( 1.098237719)       ( 1.094985190)       ( 1.096312526)       ( 1.098237719)

 Bond angles

  1-2-3  104.76902697   1-2-8  110.92255387   1-2-9  110.92255387   2-1-5  110.97328220

  2- 1- 6  110.22090701   2- 1- 7  110.22090701   2- 3- 4  107.25071562   2- 8-10  110.21836376

  2- 8-12  111.57747468   2- 8-14  110.77023896   2- 9-11  110.21836376   2- 9-13  111.57747468

  2- 9-15  110.77023896   3- 2- 8  109.53648747   3- 2- 9  109.53648747   5- 1- 6  108.61190457

  5- 1- 7  108.61190457   6- 1- 7  108.12870271   8- 2- 9  110.96453384  10- 8-12  108.52192632

 10- 8-14  108.08997829  11- 9-13  108.52192632  11- 9-15  108.08997829  12- 8-14  107.54424578

 13- 9-15  107.54424578

 NUCLEAR CHARGE:                   42
 NUMBER OF PRIMITIVE AOS:         605
 NUMBER OF SYMMETRY AOS:          540
 NUMBER OF CONTRACTIONS:          460   ( 460A   )
 NUMBER OF CORE ORBITALS:           5   (   5A   )
 NUMBER OF VALENCE ORBITALS:       30   (  30A   )


 NUCLEAR REPULSION ENERGY  198.77359127


 Eigenvalues of metric

         1 0.351E-05 0.596E-05 0.770E-05 0.977E-05 0.161E-04 0.173E-04 0.207E-04 0.297E-04


 Contracted 2-electron integrals neglected if value below      1.0D-12
 AO integral compression algorithm  1   Integral accuracy      1.0D-12

     24892.932 MB (compressed) written to integral file ( 51.7%)


 NUMBER OF SORTED TWO-ELECTRON INTEGRALS: 5621233465.     BUFFER LENGTH:  32768
 NUMBER OF SEGMENTS: 176  SEGMENT LENGTH:   31999951      RECORD LENGTH: 131072

 Memory used in sort:      32.16 MW

 SORT1 READ  6020115514. AND WROTE  5366777799. INTEGRALS IN  61513 RECORDS. CPU TIME:    87.23 SEC, REAL TIME:  3085.04 SEC
 SORT2 READ  5366777799. AND WROTE  5621233465. INTEGRALS IN  94959 RECORDS. CPU TIME:   133.58 SEC, REAL TIME:  7971.20 SEC

 FILE SIZES:   FILE 1: 24930.9 MBYTE,  FILE 4: 64501.1 MBYTE,   TOTAL:  89432.0 MBYTE

 OPERATOR DM      FOR CENTER  0  COORDINATES:    0.000000    0.000000    0.000000


 **********************************************************************************************************************************
 DATASETS  * FILE   NREC   LENGTH (MB)   RECORD NAMES
              1      19    23757.53       500      610      700      900      950      970     1000      129      960     1100   
                                          VAR    BASINP    GEOM    SYMINP    ZMAT    AOBASIS   BASIS     P2S    ABASIS      S 
                                         1400     1410     1200     1210     1080     1600     1650     1300     1700   
                                           T        V       H0       H01     AOSYM     SMH    MOLCAS    ERIS     OPER   

 PROGRAMS   *        TOTAL       INT
 CPU TIMES  *       444.20    444.05
 REAL TIME  *     12191.33 SEC
 DISK USED  *        89.43 GB      
 **********************************************************************************************************************************

 Density functional group VS99=VSXC
 Functional: VSXC(Automatically generated (new) VSXC)                          Gradient terms: 2
 Use grid at  1800.2

 Functional: VSXC                      Factor:  1.0000

 Generated new metagrid on record  1800.2 with target accuracy 1.0D-06 and 55396 points in CPU time    1.7
 Computed new grid on record 1800.1 in CPU time    1.9
  720844 words reserved for DFT integration

 PROGRAM * RKS-SCF (Restricted closed shell Kohn-Sham)     Authors: W. Meyer, H.-J. Werner, P.J. Knowles, 1993

 NUMBER OF ELECTRONS:      21+   21-    SPACE SYMMETRY=1    SPIN SYMMETRY: Singlet 
 CONVERGENCE THRESHOLDS:    1.00E-05 (Density)    1.00E-06 (Energy)
 MAX. NUMBER OF ITERATIONS:       60
 INTERPOLATION TYPE:            DIIS
 INTERPOLATION STEPS:              2 (START)      1 (STEP)
 LEVEL SHIFTS:                  0.00 (CLOSED)  0.00 (OPEN) 



 Use fine grid record 1800.2 for energy threshold  1.0D-06
 Orbital guess generated from atomic densities. Full valence occupancy:   35

 Molecular orbital dump at record        2100.2

 Initial occupancy:  21

 ITERATION    DDIFF          GRAD             ENERGY        2-EL.EN.            DIPOLE MOMENTS         DIIS   ORB.
    1      0.000D+00      0.000D+00      -232.63950839    636.049180    0.64851   -0.72852    0.00000    0    start
    2      0.000D+00      0.456D-02      -232.38604106    596.987650   -0.40101    0.02244    0.00000    1    diag
    3      0.141D-01      0.687D-02      -232.83110665    622.616372    0.38181   -0.68254    0.00000    2    diag
    4      0.834D-02      0.103D-02      -232.83851091    621.105032    0.31646   -0.43436    0.00000    3    diag
    5      0.205D-02      0.366D-03      -232.83940274    620.983239    0.30976   -0.53956    0.00000    4    diag
    6      0.134D-02      0.135D-03      -232.83953227    621.165145    0.31451   -0.51045    0.00000    5    diag
    7      0.280D-03      0.501D-04      -232.83955050    621.147735    0.31727   -0.51054    0.00000    6    diag
    8      0.127D-03      0.795D-05      -232.83955103    621.157753    0.31540   -0.51584    0.00000    7    diag
    9      0.353D-04      0.247D-05      -232.83955109    621.155415    0.31601   -0.51403    0.00000    8    diag
   10      0.102D-04      0.540D-06      -232.83955109    621.155017    0.31591   -0.51424    0.00000    9    orth
   11      0.324D-05      0.118D-06      -232.83955109    621.155411    0.31589   -0.51427    0.00000    0    orth

 Final occupancy:  21

 !RKS STATE 1.1 Energy               -232.839551092267
 Nuclear energy                       198.77359127
 One-electron energy                 -709.07067079
 Two-electron energy                  310.57770554
 Density functional                   -33.12017712     VSXC=-33.12017712
 Virial quotient                       -1.00445141
 !RKS STATE 1.1 Dipole moment           0.31589183    -0.51426976     0.00000000
 Dipole moment /Debye                   0.80286435    -1.30705774     0.00000000

 Orbital energies:

         1.1          2.1          3.1          4.1          5.1          6.1          7.1          8.1          9.1         10.1
    -18.835834   -10.021755    -9.946668    -9.946655    -9.942004    -0.960334    -0.738244    -0.643189    -0.642301    -0.519303

        11.1         12.1         13.1         14.1         15.1         16.1         17.1         18.1         19.1         20.1
     -0.440372    -0.402082    -0.399664    -0.363226    -0.349078    -0.332889    -0.319026    -0.306875    -0.300717    -0.272702

        21.1         22.1         23.1
     -0.219018    -0.015185     0.012347

 HOMO     21.1    -0.219018 =      -5.9598eV
 LUMO     22.1    -0.015185 =      -0.4132eV
 LUMO-HOMO         0.203833 =       5.5466eV


 **********************************************************************************************************************************
 DATASETS  * FILE   NREC   LENGTH (MB)   RECORD NAMES
              1      20    23759.30       500      610      700      900      950      970     1000      129      960     1100   
                                          VAR    BASINP    GEOM    SYMINP    ZMAT    AOBASIS   BASIS     P2S    ABASIS      S 
                                         1400     1410     1200     1210     1080     1600     1650     1300     1700     1800   
                                           T        V       H0       H01     AOSYM     SMH    MOLCAS    ERIS     OPER     GRID   

              2       5        7.31       700     1000      520     1800     2100   
                                         GEOM     BASIS   MCVARS    GRID      RKS  

 PROGRAMS   *        TOTAL        KS       INT
 CPU TIMES  *      1615.56   1171.36    444.05
 REAL TIME  *     24089.66 SEC
 DISK USED  *        89.43 GB      
 **********************************************************************************************************************************


 PROGRAM * Intrinsic Basis Bonding Analysis (IBBA)          Author: G. Knizia

 Molecular orbitals read from record     2100.2  Type=RKS/CANONICAL (state 1.1)
 Fock matrix read from record            2100.2  Type=RKS/TOTAL (state 1.1)
 Orbital energies read from record       2100.2  Type=RKS/CANONICAL (state 1.1)
 Density matrix read from record         2100.2  Type=RKS/CHARGE (state 1.1)

 Number of core orbitals:           5 (   5 )
 Number of closed-shell orbitals:  16 (  16 )

 Basis set MINAO-AUTO-PP generated.      Number of basis functions:   35 

 Polarized AO type:                A = (O Ot + (1-O)(1-Ot)) P12
 Orthogonalization method:         Symmetric (Loewdin)
 Localization functional:          L = sum[A,i] <i|n_A|i>^4 -> max

 Localization group 1:  21 orbitals, occupancy  2.000
 Iterative localization: IB/PM,    7 iter; Final gradient 0.23E-08

 Bond order analysis:       [THRPRINT= 0.020]

   CEN ATOM   CEN ATOM     WIBERG.BO      RENORM.BO
     1   C  -   2   C       0.997144       0.993863
     1   C  -   5   H       0.961193       0.986300
     1   C  -   6   H       0.956039       0.979455
     1   C  -   7   H       0.956039       0.979455

     2   C  -   1   C       0.997144       0.993863
     2   C  -   9   C       0.994996       0.974109
     2   C  -   8   C       0.994996       0.974109
     2   C  -   3   O       0.928656       0.945460

     3   O  -   2   C       0.928656       0.945460
     3   O  -   4   H       0.857270       0.973919
     3   O  -   8   C       0.030273       0.015367
     3   O  -   9   C       0.030273       0.015367

     4   H  -   3   O       0.857270       0.973919

     5   H  -   1   C       0.961193       0.986300

     6   H  -   1   C       0.956039       0.979455

     7   H  -   1   C       0.956039       0.979455

     8   C  -   2   C       0.994996       0.974109
     8   C  -  14   H       0.960341       0.980288
     8   C  -  10   H       0.956650       0.979297
     8   C  -  12   H       0.956354       0.979008
     8   C  -   3   O       0.030273       0.015367

     9   C  -   2   C       0.994996       0.974109
     9   C  -  15   H       0.960341       0.980288
     9   C  -  11   H       0.956650       0.979297
     9   C  -  13   H       0.956354       0.979008
     9   C  -   3   O       0.030273       0.015367

    10   H  -   8   C       0.956650       0.979297

    11   H  -   9   C       0.956650       0.979297

    12   H  -   8   C       0.956354       0.979008

    13   H  -   9   C       0.956354       0.979008

    14   H  -   8   C       0.960341       0.980288

    15   H  -   9   C       0.960341       0.980288


 Valency analysis:

   CEN ATOM   TOT.VALENCE
     1   C       3.935446
     2   C       3.925692
     3   O       1.920244
     4   H       0.878814
     5   H       0.980555
     6   H       0.978095
     7   H       0.978095
     8   C       3.937997
     9   C       3.937997
    10   H       0.978203
    11   H       0.978203
    12   H       0.980037
    13   H       0.980037
    14   H       0.982405
    15   H       0.982405

 Total charge composition:

   CEN ATOM         s          p       ELECTRONS ->P.CHARGE
     1   C       3.06314    3.36856      6.43169   -0.43169
     2   C       2.95000    2.77288      5.72288    0.27712
     3   O       3.66002    4.92248      8.58251   -0.58251
     4   H       0.65188                 0.65188    0.34812
     5   H       0.86056                 0.86056    0.13944
     6   H       0.85200                 0.85200    0.14800
     7   H       0.85200                 0.85200    0.14800
     8   C       3.07023    3.37459      6.44482   -0.44482
     9   C       3.07023    3.37459      6.44482   -0.44482
    10   H       0.85236                 0.85236    0.14764
    11   H       0.85236                 0.85236    0.14764
    12   H       0.85871                 0.85871    0.14129
    13   H       0.85871                 0.85871    0.14129
    14   H       0.86735                 0.86735    0.13265
    15   H       0.86735                 0.86735    0.13265

 Total charge composition, AO contributions:

   CEN ATOM SHL      SPHERICAL COMPONENTS
     1   C  1s       1.99109
     1   C  2s       1.07205
     1   C  2p       1.03729    1.15967    1.17160

     2   C  1s       1.99276
     2   C  2s       0.95724
     2   C  2p       0.99693    0.77505    1.00089

     3   O  1s       1.99723
     3   O  2s       1.66280
     3   O  2p       1.47357    1.49771    1.95120

     4   H  1s       0.65188

     5   H  1s       0.86056

     6   H  1s       0.85200

     7   H  1s       0.85200

     8   C  1s       1.99119
     8   C  2s       1.07904
     8   C  2p       1.14136    1.14118    1.09204

     9   C  1s       1.99119
     9   C  2s       1.07904
     9   C  2p       1.14136    1.14118    1.09204

    10   H  1s       0.85236

    11   H  1s       0.85236

    12   H  1s       0.85871

    13   H  1s       0.85871

    14   H  1s       0.86735

    15   H  1s       0.86735

 Summary of localized orbital composition:   [THRPRINT= 0.020]

   ORB  GRP  ORB.ENERGY      CENTERS/CHARGES
     1   1   -18.675839      O  3   2.000
     2   1    -9.930453      C  2   2.000
     3   1    -9.831098      C  8   2.000
     4   1    -9.831098      C  9   2.000
     5   1    -9.825656      C  1   2.000
     6   1    -0.703721      O  3   1.350   H  4   0.639
     7   1    -0.664753      O  3   1.297   C  2   0.683   (other: 0.020)
     8   1    -0.526718      C  9   1.012   C  2   0.972
     9   1    -0.526718      C  8   1.012   C  2   0.972
    10   1    -0.526502      C  1   0.995   C  2   0.980   (other: 0.025)
    11   1    -0.525903      O  3   1.980
    12   1    -0.458409      C  9   1.137   H 13   0.848
    13   1    -0.458409      C  8   1.137   H 12   0.848
    14   1    -0.456392      C  8   1.128   H 14   0.860
    15   1    -0.456392      C  9   1.128   H 15   0.860
    16   1    -0.454514      C  1   1.132   H  5   0.853
    17   1    -0.452563      C  9   1.145   H 11   0.844
    18   1    -0.452563      C  8   1.145   H 10   0.844
    19   1    -0.448477      C  1   1.144   H  7   0.843
    20   1    -0.448477      C  1   1.144   H  6   0.843
    21   1    -0.247280      O  3   1.951   (other: 0.049)

 Localized orbitals saved to record      2100.2  (orbital set 2)


 **********************************************************************************************************************************
 DATASETS  * FILE   NREC   LENGTH (MB)   RECORD NAMES
              1      20    23759.30       500      610      700      900      950      970     1000      129      960     1100   
                                          VAR    BASINP    GEOM    SYMINP    ZMAT    AOBASIS   BASIS     P2S    ABASIS      S 
                                         1400     1410     1200     1210     1080     1600     1650     1300     1700     1800   
                                           T        V       H0       H01     AOSYM     SMH    MOLCAS    ERIS     OPER     GRID   

              2       5        9.01       700     1000      520     1800     2100   
                                         GEOM     BASIS   MCVARS    GRID      RKS  

 PROGRAMS   *        TOTAL      IBBA        KS       INT
 CPU TIMES  *      1615.83      0.27   1171.36    444.05
 REAL TIME  *     24090.14 SEC
 DISK USED  *        89.43 GB      
 **********************************************************************************************************************************
 Molecular orbitals read from record     2100.2  Type=RKS/LOCAL(IBO)  
 Occupation numbers read from record     2100.2  Type=RKS/LOCAL(IBO)  
 Orbital energies read from record       2100.2  Type=RKS/LOCAL(IBO)  
 Redundancy group numbers read from rec  2100.2  Type=RKS/LOCAL(IBO)  

 IBBA/aug-cc-pVTZ energy=      0.000000000000

        KS-SCF  
   -232.83955109
 **********************************************************************************************************************************
 Molpro calculation terminated
