
 Primary working directories    : /local
 Secondary working directories  : /local
 Wavefunction directory         : /local/
 Main file repository           : /local/

 SHA1      : b4a5b34a9e711420743f49e6833241d17c61fb3c
 NAME      : 2099.9.b4a5b34
 ARCHNAME  : linux/x86_64_openmp
 FC        : /cm/shared/languages/GCC-6.1/bin/gfortran
 BLASLIB   : -lblas
 id        : simonbennie

 Nodes     nprocs
 node47-022    1

 Using customized tuning parameters: mindgm=1; mindgv=20; mindgc=4; mindgr=1; noblas=0; minvec=7
 default implementation of scratch files=df  

 memory,500,m
 geomtyp=xyz
 nosym
 noorient
 geometry={
 C         -1.53233        0.02247        0.00000
 C         -0.00192        0.01421        0.00000
 O          0.37239        1.40356        0.00000
 H          1.34248        1.44036        0.00000
 H         -1.92991       -0.99819        0.00000
 H         -1.90797        0.54382       -0.88653
 H         -1.90797        0.54382        0.88653
 C          0.54303       -0.66466       -1.26580
 C          0.54303       -0.66466        1.26580
 H          0.17836       -0.14752       -2.15943
 H          0.17836       -0.14752        2.15943
 H          0.23752       -1.71600       -1.32280
 H          0.23752       -1.71600        1.32280
 H          1.64084       -0.63767       -1.28032
 H          1.64084       -0.63767        1.28032
 }
 basis={ default,avdz }
 {ks,D,direct;wf,42,1,0}
 {ibba,bonds=1}

 Variables initialized (895), CPU time= 0.01 sec
 Commands  initialized (725), CPU time= 0.01 sec, 591 directives.
 Default parameters read. Elapsed time= 0.15 sec

 Checking input...
 Passed
1


                                         ***  PROGRAM SYSTEM MOLPRO  ***
                                       Copyright, TTI GmbH Stuttgart, 2015
                                    Version 2099.9 linked May 26 2017 16:03:21


 **********************************************************************************************************************************
 LABEL *                                                                                 
  64 bit serial version                                                                  DATE: 12-Jun-17          TIME: 16:22:02  
 **********************************************************************************************************************************

 SHA1:             b4a5b34a9e711420743f49e6833241d17c61fb3c
 **********************************************************************************************************************************
 SETTING GEOMTYP        =    XYZ

 Variable memory set to  500000000 words,  buffer space 

 ZSYMEL=NOSYM

 SETTING BASIS          =    AVDZ


 Recomputing integrals since basis changed


 Using spherical harmonics

 Library entry C      S aug-cc-pVDZ          selected for orbital group  1
 Library entry C      P aug-cc-pVDZ          selected for orbital group  1
 Library entry C      D aug-cc-pVDZ          selected for orbital group  1
 Library entry O      S aug-cc-pVDZ          selected for orbital group  2
 Library entry O      P aug-cc-pVDZ          selected for orbital group  2
 Library entry O      D aug-cc-pVDZ          selected for orbital group  2
 Library entry H      S aug-cc-pVDZ          selected for orbital group  3
 Library entry H      P aug-cc-pVDZ          selected for orbital group  3


 PROGRAM * SEWARD (Integral evaluation for generally contracted gaussian basis sets)     Author: Roland Lindh, 1990

 Geometry written to block  1 of record 700


 Point group  C1  



 ATOMIC COORDINATES

 NR  ATOM    CHARGE       X              Y              Z

   1  C       6.00   -2.895684032    0.042462146    0.000000000
   2  C       6.00   -0.003628274    0.026853008    0.000000000
   3  O       8.00    0.703715112    2.652343999    0.000000000
   4  H       1.00    2.536919528    2.721885921    0.000000000
   5  H       1.00   -3.647001345   -1.886305720    0.000000000
   6  H       1.00   -3.605540754    1.027670861   -1.675298901
   7  H       1.00   -3.605540754    1.027670861    1.675298901
   8  C       6.00    1.026177977   -1.256025366   -2.392015328
   9  C       6.00    1.026177977   -1.256025366    2.392015328
  10  H       1.00    0.337051552   -0.278772398   -4.080731285
  11  H       1.00    0.337051552   -0.278772398    4.080731285
  12  H       1.00    0.448847749   -3.242770030   -2.499729718
  13  H       1.00    0.448847749   -3.242770030    2.499729718
  14  H       1.00    3.100738214   -1.205021658   -2.419454152
  15  H       1.00    3.100738214   -1.205021658    2.419454152

 Bond lengths in Bohr (Angstrom)

 1-2  2.892097881  1-5  2.069933136  1-6  2.069096224  1-7  2.069096224  2-3  2.719106031
     ( 1.530432290)     ( 1.095361444)     ( 1.094918569)     ( 1.094918569)     ( 1.438888946)

  2- 8  2.903104402   2- 9  2.903104402   3- 4  1.834522965   8-10  2.069222119   8-12  2.071730422
       ( 1.536256691)       ( 1.536256691)       ( 0.970787746)       ( 1.094985190)       ( 1.096312526)

  8-14  2.075368508   9-11  2.069222119   9-13  2.071730422   9-15  2.075368508
       ( 1.098237719)       ( 1.094985190)       ( 1.096312526)       ( 1.098237719)

 Bond angles

  1-2-3  104.76902697   1-2-8  110.92255387   1-2-9  110.92255387   2-1-5  110.97328220

  2- 1- 6  110.22090701   2- 1- 7  110.22090701   2- 3- 4  107.25071562   2- 8-10  110.21836376

  2- 8-12  111.57747468   2- 8-14  110.77023896   2- 9-11  110.21836376   2- 9-13  111.57747468

  2- 9-15  110.77023896   3- 2- 8  109.53648747   3- 2- 9  109.53648747   5- 1- 6  108.61190457

  5- 1- 7  108.61190457   6- 1- 7  108.12870271   8- 2- 9  110.96453384  10- 8-12  108.52192632

 10- 8-14  108.08997829  11- 9-13  108.52192632  11- 9-15  108.08997829  12- 8-14  107.54424578

 13- 9-15  107.54424578

 NUCLEAR CHARGE:                   42
 NUMBER OF PRIMITIVE AOS:         295
 NUMBER OF SYMMETRY AOS:          285
 NUMBER OF CONTRACTIONS:          205   ( 205A   )
 NUMBER OF CORE ORBITALS:           5   (   5A   )
 NUMBER OF VALENCE ORBITALS:       30   (  30A   )


 NUCLEAR REPULSION ENERGY  198.77359127


 Eigenvalues of metric

         1 0.151E-04 0.552E-04 0.579E-04 0.110E-03 0.111E-03 0.217E-03 0.237E-03 0.259E-03


 Contracted 2-electron integrals neglected if value below      1.0D-12
 AO integral compression algorithm  1   Integral accuracy      1.0D-12

     1203.503 MB (compressed) written to integral file ( 61.3%)


 NUMBER OF SORTED TWO-ELECTRON INTEGRALS:  222932170.     BUFFER LENGTH:  32768
 NUMBER OF SEGMENTS:  14  SEGMENT LENGTH:   15999503      RECORD LENGTH: 524288

 Memory used in sort:      16.56 MW

 SORT1 READ   245224724. AND WROTE   218324786. INTEGRALS IN    630 RECORDS. CPU TIME:     3.08 SEC, REAL TIME:    15.42 SEC
 SORT2 READ   218324786. AND WROTE   222932170. INTEGRALS IN   4591 RECORDS. CPU TIME:     4.62 SEC, REAL TIME:    23.45 SEC

 FILE SIZES:   FILE 1:  1235.3 MBYTE,  FILE 4:  2642.4 MBYTE,   TOTAL:   3877.7 MBYTE

 OPERATOR DM      FOR CENTER  0  COORDINATES:    0.000000    0.000000    0.000000


 **********************************************************************************************************************************
 DATASETS  * FILE   NREC   LENGTH (MB)   RECORD NAMES
              1      19     1149.90       500      610      700      900      950      970     1000      129      960     1100   
                                          VAR    BASINP    GEOM    SYMINP    ZMAT    AOBASIS   BASIS     P2S    ABASIS      S 
                                         1400     1410     1200     1210     1080     1600     1650     1300     1700   
                                           T        V       H0       H01     AOSYM     SMH    MOLCAS    ERIS     OPER   

 PROGRAMS   *        TOTAL       INT
 CPU TIMES  *        19.71     19.56
 REAL TIME  *        56.78 SEC
 DISK USED  *         3.88 GB      
 **********************************************************************************************************************************

 Density functional group D=DIRAC
 Functional: DIRAC(Automatically generated (new) DIRAC)                        Gradient terms: 0
 Use grid at  1800.2

 Functional: DIRAC                     Factor:  1.0000

 Generated new metagrid on record  1800.2 with target accuracy 1.0D-06 and 53396 points in CPU time    1.6
 Computed new grid on record 1800.1 in CPU time    1.8
   89184 words reserved for DFT integration

 PROGRAM * RKS-SCF (Restricted closed shell Kohn-Sham)     Authors: W. Meyer, H.-J. Werner, P.J. Knowles, 1993

 NUMBER OF ELECTRONS:      21+   21-    SPACE SYMMETRY=1    SPIN SYMMETRY: Singlet 
 CONVERGENCE THRESHOLDS:    1.00E-05 (Density)    1.00E-06 (Energy)
 MAX. NUMBER OF ITERATIONS:       60
 INTERPOLATION TYPE:            DIIS
 INTERPOLATION STEPS:              2 (START)      1 (STEP)
 LEVEL SHIFTS:                  0.00 (CLOSED)  0.00 (OPEN) 



 Use fine grid record 1800.2 for energy threshold  1.0D-06
 Orbital guess generated from atomic densities. Full valence occupancy:   35

 Molecular orbital dump at record        2100.2

 Initial occupancy:  21

 ITERATION    DDIFF          GRAD             ENERGY        2-EL.EN.            DIPOLE MOMENTS         DIIS   ORB.
    1      0.000D+00      0.000D+00      -228.71760602    637.124126    0.70092   -0.72994    0.00000    0    start
    2      0.000D+00      0.828D-02      -228.03160549    583.612994   -0.81817    0.06726    0.00000    1    diag
    3      0.363D-01      0.150D-01      -228.98628586    622.380991    0.41241   -0.71614    0.00000    2    diag
    4      0.242D-01      0.222D-02      -229.00078867    619.299899    0.32125   -0.40691    0.00000    3    diag
    5      0.373D-02      0.921D-03      -229.00321346    619.374441    0.31752   -0.57262    0.00000    4    diag
    6      0.153D-02      0.344D-03      -229.00358536    619.501076    0.31850   -0.52485    0.00000    5    diag
    7      0.444D-03      0.834D-04      -229.00360586    619.522773    0.32303   -0.52072    0.00000    6    diag
    8      0.166D-03      0.134D-04      -229.00360665    619.543652    0.32197   -0.52679    0.00000    7    diag
    9      0.278D-04      0.363D-05      -229.00360671    619.545377    0.32242   -0.52538    0.00000    8    diag
   10      0.641D-05      0.518D-06      -229.00360671    619.546527    0.32250   -0.52553    0.00000    0    orth

 Final occupancy:  21

 !RKS STATE 1.1 Energy               -229.003606706495
 Nuclear energy                       198.77359127
 One-electron energy                 -708.38452566
 Two-electron energy                  309.77326346
 Density functional                   -29.16593578     DIRAC=-29.16593578
 Virial quotient                       -0.99160463
 !RKS STATE 1.1 Dipole moment           0.32249876    -0.52553122     0.00000000
 Dipole moment /Debye                   0.81965639    -1.33567963     0.00000000

 Orbital energies:

         1.1          2.1          3.1          4.1          5.1          6.1          7.1          8.1          9.1         10.1
    -18.547311    -9.767496    -9.700479    -9.700463    -9.695200    -0.884399    -0.668984    -0.577461    -0.577035    -0.470214

        11.1         12.1         13.1         14.1         15.1         16.1         17.1         18.1         19.1         20.1
     -0.397780    -0.363197    -0.360385    -0.322852    -0.308976    -0.292209    -0.275903    -0.268720    -0.261410    -0.237013

        21.1         22.1         23.1
     -0.185471    -0.008706     0.016400

 HOMO     21.1    -0.185471 =      -5.0469eV
 LUMO     22.1    -0.008706 =      -0.2369eV
 LUMO-HOMO         0.176765 =       4.8100eV


 **********************************************************************************************************************************
 DATASETS  * FILE   NREC   LENGTH (MB)   RECORD NAMES
              1      20     1151.61       500      610      700      900      950      970     1000      129      960     1100   
                                          VAR    BASINP    GEOM    SYMINP    ZMAT    AOBASIS   BASIS     P2S    ABASIS      S 
                                         1400     1410     1200     1210     1080     1600     1650     1300     1700     1800   
                                           T        V       H0       H01     AOSYM     SMH    MOLCAS    ERIS     OPER     GRID   

              2       5        3.87       700     1000      520     1800     2100   
                                         GEOM     BASIS   MCVARS    GRID      RKS  

 PROGRAMS   *        TOTAL        KS       INT
 CPU TIMES  *        50.99     31.27     19.56
 REAL TIME  *        90.40 SEC
 DISK USED  *         3.88 GB      
 **********************************************************************************************************************************


 PROGRAM * Intrinsic Basis Bonding Analysis (IBBA)          Author: G. Knizia

 Molecular orbitals read from record     2100.2  Type=RKS/CANONICAL (state 1.1)
 Fock matrix read from record            2100.2  Type=RKS/TOTAL (state 1.1)
 Orbital energies read from record       2100.2  Type=RKS/CANONICAL (state 1.1)
 Density matrix read from record         2100.2  Type=RKS/CHARGE (state 1.1)

 Number of core orbitals:           5 (   5 )
 Number of closed-shell orbitals:  16 (  16 )

 Basis set MINAO-AUTO-PP generated.      Number of basis functions:   35 

 Polarized AO type:                A = (O Ot + (1-O)(1-Ot)) P12
 Orthogonalization method:         Symmetric (Loewdin)
 Localization functional:          L = sum[A,i] <i|n_A|i>^4 -> max

 Localization group 1:  21 orbitals, occupancy  2.000
 Iterative localization: IB/PM,    7 iter; Final gradient 0.63E-08

 Bond order analysis:       [THRPRINT= 0.020]

   CEN ATOM   CEN ATOM     WIBERG.BO      RENORM.BO
     1   C  -   2   C       0.995918       0.992316
     1   C  -   5   H       0.955970       0.984873
     1   C  -   6   H       0.950960       0.977895
     1   C  -   7   H       0.950960       0.977895

     2   C  -   1   C       0.995918       0.992316
     2   C  -   9   C       0.995229       0.973205
     2   C  -   8   C       0.995229       0.973205
     2   C  -   3   O       0.937251       0.938026

     3   O  -   2   C       0.937251       0.938026
     3   O  -   4   H       0.857930       0.969378
     3   O  -   8   C       0.032332       0.016599
     3   O  -   9   C       0.032332       0.016599
     3   O  -  13   H       0.020667       0.016386
     3   O  -  12   H       0.020667       0.016386

     4   H  -   3   O       0.857930       0.969378

     5   H  -   1   C       0.955970       0.984873

     6   H  -   1   C       0.950960       0.977895

     7   H  -   1   C       0.950960       0.977895

     8   C  -   2   C       0.995229       0.973205
     8   C  -  14   H       0.955089       0.978871
     8   C  -  10   H       0.951579       0.977627
     8   C  -  12   H       0.950731       0.977293
     8   C  -   3   O       0.032332       0.016599

     9   C  -   2   C       0.995229       0.973205
     9   C  -  15   H       0.955089       0.978871
     9   C  -  11   H       0.951579       0.977627
     9   C  -  13   H       0.950731       0.977293
     9   C  -   3   O       0.032332       0.016599

    10   H  -   8   C       0.951579       0.977627

    11   H  -   9   C       0.951579       0.977627

    12   H  -   8   C       0.950731       0.977293
    12   H  -   3   O       0.020667       0.016386

    13   H  -   9   C       0.950731       0.977293
    13   H  -   3   O       0.020667       0.016386

    14   H  -   8   C       0.955089       0.978871

    15   H  -   9   C       0.955089       0.978871


 Valency analysis:

   CEN ATOM   TOT.VALENCE
     1   C       3.925445
     2   C       3.936771
     3   O       1.941214
     4   H       0.882245
     5   H       0.978786
     6   H       0.976306
     7   H       0.976306
     8   C       3.928193
     9   C       3.928193
    10   H       0.976341
    11   H       0.976341
    12   H       0.978083
    13   H       0.978083
    14   H       0.980611
    15   H       0.980611

 Total charge composition:

   CEN ATOM         s          p       ELECTRONS ->P.CHARGE
     1   C       3.03583    3.41162      6.44746   -0.44746
     2   C       2.92918    2.82270      5.75188    0.24812
     3   O       3.64462    4.91196      8.55658   -0.55658
     4   H       0.65685                 0.65685    0.34315
     5   H       0.85435                 0.85435    0.14565
     6   H       0.84607                 0.84607    0.15393
     7   H       0.84607                 0.84607    0.15393
     8   C       3.04345    3.41801      6.46147   -0.46147
     9   C       3.04345    3.41801      6.46147   -0.46147
    10   H       0.84619                 0.84619    0.15381
    11   H       0.84619                 0.84619    0.15381
    12   H       0.85196                 0.85196    0.14804
    13   H       0.85196                 0.85196    0.14804
    14   H       0.86076                 0.86076    0.13924
    15   H       0.86076                 0.86076    0.13924

 Total charge composition, AO contributions:

   CEN ATOM SHL      SPHERICAL COMPONENTS
     1   C  1s       1.99221
     1   C  2s       1.04362
     1   C  2p       1.04607    1.17638    1.18918

     2   C  1s       1.99375
     2   C  2s       0.93544
     2   C  2p       1.01050    0.79867    1.01353

     3   O  1s       1.99741
     3   O  2s       1.64721
     3   O  2p       1.47503    1.48835    1.94858

     4   H  1s       0.65685

     5   H  1s       0.85435

     6   H  1s       0.84607

     7   H  1s       0.84607

     8   C  1s       1.99231
     8   C  2s       1.05115
     8   C  2p       1.15743    1.15720    1.10338

     9   C  1s       1.99231
     9   C  2s       1.05115
     9   C  2p       1.15743    1.15720    1.10338

    10   H  1s       0.84619

    11   H  1s       0.84619

    12   H  1s       0.85196

    13   H  1s       0.85196

    14   H  1s       0.86076

    15   H  1s       0.86076

 Summary of localized orbital composition:   [THRPRINT= 0.020]

   ORB  GRP  ORB.ENERGY      CENTERS/CHARGES
     1   1   -18.400341      O  3   2.000
     2   1    -9.680285      C  2   2.000
     3   1    -9.591385      C  8   2.000
     4   1    -9.591385      C  9   2.000
     5   1    -9.585397      C  1   2.000
     6   1    -0.653875      O  3   1.347   H  4   0.642
     7   1    -0.619328      O  3   1.277   C  2   0.703   (other: 0.020)
     8   1    -0.478388      C  8   1.009   C  2   0.973
     9   1    -0.478388      C  9   1.009   C  2   0.973
    10   1    -0.478019      C  1   0.992   C  2   0.981   (other: 0.027)
    11   1    -0.458755      O  3   1.979   (other: 0.021)
    12   1    -0.408191      C  9   1.142   H 13   0.840
    13   1    -0.408191      C  8   1.142   H 12   0.840
    14   1    -0.406972      C  8   1.133   H 14   0.852
    15   1    -0.406972      C  9   1.133   H 15   0.852
    16   1    -0.404129      C  1   1.137   H  5   0.846
    17   1    -0.401942      C  9   1.151   H 11   0.836
    18   1    -0.401942      C  8   1.151   H 10   0.836
    19   1    -0.397599      C  1   1.150   H  6   0.836
    20   1    -0.397599      C  1   1.150   H  7   0.836
    21   1    -0.213874      O  3   1.949   (other: 0.051)

 Localized orbitals saved to record      2100.2  (orbital set 2)


 **********************************************************************************************************************************
 DATASETS  * FILE   NREC   LENGTH (MB)   RECORD NAMES
              1      20     1151.61       500      610      700      900      950      970     1000      129      960     1100   
                                          VAR    BASINP    GEOM    SYMINP    ZMAT    AOBASIS   BASIS     P2S    ABASIS      S 
                                         1400     1410     1200     1210     1080     1600     1650     1300     1700     1800   
                                           T        V       H0       H01     AOSYM     SMH    MOLCAS    ERIS     OPER     GRID   

              2       5        4.21       700     1000      520     1800     2100   
                                         GEOM     BASIS   MCVARS    GRID      RKS  

 PROGRAMS   *        TOTAL      IBBA        KS       INT
 CPU TIMES  *        51.05      0.06     31.27     19.56
 REAL TIME  *        90.64 SEC
 DISK USED  *         3.88 GB      
 **********************************************************************************************************************************
 Molecular orbitals read from record     2100.2  Type=RKS/LOCAL(IBO)  
 Occupation numbers read from record     2100.2  Type=RKS/LOCAL(IBO)  
 Orbital energies read from record       2100.2  Type=RKS/LOCAL(IBO)  
 Redundancy group numbers read from rec  2100.2  Type=RKS/LOCAL(IBO)  

 IBBA/aug-cc-pVDZ energy=      0.000000000000

        KS-SCF  
   -229.00360671
 **********************************************************************************************************************************
 Molpro calculation terminated
