
 Primary working directories    : /tmp/sb13343
 Secondary working directories  : /tmp/sb13343
 Wavefunction directory         : /panfs/panasas01/chem/sb13343/wfu/
 Main file repository           : /tmp/sb13343/

 SHA1      : b4a5b34a9e711420743f49e6833241d17c61fb3c
 NAME      : 2099.9.b4a5b34
 ARCHNAME  : linux/x86_64_openmp
 FC        : /cm/shared/languages/GCC-6.1/bin/gfortran
 BLASLIB   : -lblas
 id        : simonbennie

 Nodes     nprocs
 node32-014    1

 Using customized tuning parameters: mindgm=1; mindgv=20; mindgc=4; mindgr=1; noblas=0; minvec=7
 default implementation of scratch files=df  

 memory,500,m
 geomtyp=xyz
 nosym
 noorient
 geometry={
 C          0.00000        0.00000        0.00000
 C          1.54025       -0.00009       -0.00004
 C         -0.51333        1.45219       -0.00005
 C         -0.51349       -0.72611       -1.25756
 C         -0.51342       -0.72599        1.25765
 H         -1.60999        1.48489       -0.00002
 H         -1.61015       -0.74237       -1.28580
 H         -1.61008       -0.74225        1.28596
 H         -0.16312        1.99638        0.88591
 H         -0.16316        1.99630       -0.88608
 H         -0.16333       -0.23096       -2.17186
 H         -0.16339       -1.76551       -1.28580
 H         -0.16332       -1.76539        1.28596
 H         -0.16320       -0.23077        2.17189
 H          1.93652       -1.02316       -0.00001
 H          1.93658        0.51138       -0.88607
 H          1.93663        0.51146        0.88592
 }
 basis={ default,sto-3g }
 {ks,M11-L,direct;wf,42,1,0}
 {ibba,bonds=1}

 Variables initialized (895), CPU time= 0.00 sec
 Commands  initialized (725), CPU time= 0.01 sec, 591 directives.
 Default parameters read. Elapsed time= 0.08 sec

 Checking input...
 Passed
1


                                         ***  PROGRAM SYSTEM MOLPRO  ***
                                       Copyright, TTI GmbH Stuttgart, 2015
                                    Version 2099.9 linked May 26 2017 16:03:21


 **********************************************************************************************************************************
 LABEL *                                                                                 
  64 bit serial version                                                                  DATE: 08-Jun-17          TIME: 22:18:04  
 **********************************************************************************************************************************

 SHA1:             b4a5b34a9e711420743f49e6833241d17c61fb3c
 **********************************************************************************************************************************
 SETTING GEOMTYP        =    XYZ

 Variable memory set to  500000000 words,  buffer space 

 ZSYMEL=NOSYM

 SETTING BASIS          =    STO-3G


 Recomputing integrals since basis changed


 Using spherical harmonics

 Library entry C      S STO-3G               selected for orbital group  1
 Library entry C      P STO-3G               selected for orbital group  1
 Library entry H      S STO-3G               selected for orbital group  2


 PROGRAM * SEWARD (Integral evaluation for generally contracted gaussian basis sets)     Author: Roland Lindh, 1990

 Geometry written to block  1 of record 700


 Point group  C1  



 ATOMIC COORDINATES

 NR  ATOM    CHARGE       X              Y              Z

   1  C       6.00    0.000000000    0.000000000    0.000000000
   2  C       6.00    2.910650663   -0.000170075   -0.000075589
   3  C       6.00   -0.970053112    2.744241381   -0.000094486
   4  C       6.00   -0.970355468   -1.372149036   -2.376443985
   5  C       6.00   -0.970223187   -1.371922269    2.376614061
   6  H       1.00   -3.042440163    2.806035425   -0.000037795
   7  H       1.00   -3.042742519   -1.402875983   -2.429809851
   8  H       1.00   -3.042610239   -1.402649216    2.430112207
   9  H       1.00   -0.308252125    3.772611441    1.674127271
  10  H       1.00   -0.308327714    3.772460262   -1.674448524
  11  H       1.00   -0.308648968   -0.436451146   -4.104220581
  12  H       1.00   -0.308762351   -3.336330370   -2.429809851
  13  H       1.00   -0.308630071   -3.336103603    2.430112207
  14  H       1.00   -0.308403304   -0.436092098    4.104277273
  15  H       1.00    3.659492435   -1.933492182   -0.000018897
  16  H       1.00    3.659605818    0.966368146   -1.674429627
  17  H       1.00    3.659700305    0.966519324    1.674146168

 Bond lengths in Bohr (Angstrom)

  1- 2  2.910650669   1- 3  2.910646630   1- 4  2.910647475   1- 5  2.910635350   2-15  2.073282028
       ( 1.540250003)       ( 1.540247866)       ( 1.540248313)       ( 1.540241896)       ( 1.097133601)

  2-16  2.073304464   2-17  2.073302258   3- 6  2.073308129   3- 9  2.073293037   3-10  2.073300754
       ( 1.097145474)       ( 1.097144306)       ( 1.097147413)       ( 1.097139427)       ( 1.097143510)

  4- 7  2.073301752   4-11  2.073306055   4-12  2.073297296   5- 8  2.073305161   5-13  2.073300706
       ( 1.097144038)       ( 1.097146316)       ( 1.097141681)       ( 1.097145842)       ( 1.097143485)

  5-14  2.073307464
       ( 1.097147061)

 Bond angles

  1- 2-15  111.17643746   1- 2-16  111.17582452   1- 2-17  111.17607088   1- 3- 6  111.17575783

  1- 3- 9  111.17644989   1- 3-10  111.17611121   1- 4- 7  111.17614317   1- 4-11  111.17631877

  1- 4-12  111.17675056   1- 5- 8  111.17663037   1- 5-13  111.17645588   1- 5-14  111.17672823

  2-1-3  109.47117711   2-1-4  109.47117360   2-1-5  109.47107360   3-1-4  109.47144919

  3- 1- 5  109.47121161   4- 1- 5  109.47123870   6- 3- 9  107.71338639   6- 3-10  107.71391335

  7- 4-11  107.71323113   7- 4-12  107.71354587   8- 5-13  107.71328790   8- 5-14  107.71342022

  9- 3-10  107.71420977  11- 4-12  107.71378459  13- 5-14  107.71321488  15- 2-16  107.71365571

 15- 2-17  107.71411853  16- 2-17  107.71372051

 NUCLEAR CHARGE:                   42
 NUMBER OF PRIMITIVE AOS:         111
 NUMBER OF SYMMETRY AOS:          111
 NUMBER OF CONTRACTIONS:           37   (  37A   )
 NUMBER OF CORE ORBITALS:           5   (   5A   )
 NUMBER OF VALENCE ORBITALS:       32   (  32A   )


 NUCLEAR REPULSION ENERGY  197.66618863


 Eigenvalues of metric

         1 0.202E+00 0.229E+00 0.229E+00 0.229E+00 0.312E+00 0.362E+00 0.362E+00 0.362E+00


 Contracted 2-electron integrals neglected if value below      1.0D-11
 AO integral compression algorithm  1   Integral accuracy      1.0D-11

     2.097 MB (compressed) written to integral file ( 90.5%)


 NUMBER OF SORTED TWO-ELECTRON INTEGRALS:     247456.     BUFFER LENGTH:  32768
 NUMBER OF SEGMENTS:   1  SEGMENT LENGTH:     247456      RECORD LENGTH: 524288

 Memory used in sort:       0.80 MW

 SORT1 READ      274857. AND WROTE      242287. INTEGRALS IN      1 RECORDS. CPU TIME:     0.01 SEC, REAL TIME:     0.01 SEC
 SORT2 READ      242287. AND WROTE      247456. INTEGRALS IN      8 RECORDS. CPU TIME:     0.02 SEC, REAL TIME:     0.03 SEC

 FILE SIZES:   FILE 1:    32.4 MBYTE,  FILE 4:     4.2 MBYTE,   TOTAL:     36.6 MBYTE

 OPERATOR DM      FOR CENTER  0  COORDINATES:    0.000000    0.000000    0.000000


 **********************************************************************************************************************************
 DATASETS  * FILE   NREC   LENGTH (MB)   RECORD NAMES
              1      19       31.36       500      610      700      900      950      970     1000      129      960     1100   
                                          VAR    BASINP    GEOM    SYMINP    ZMAT    AOBASIS   BASIS     P2S    ABASIS      S 
                                         1400     1410     1200     1210     1080     1600     1650     1300     1700   
                                           T        V       H0       H01     AOSYM     SMH    MOLCAS    ERIS     OPER   

 PROGRAMS   *        TOTAL       INT
 CPU TIMES  *         0.72      0.57
 REAL TIME  *         1.02 SEC
 DISK USED  *        37.15 MB      
 **********************************************************************************************************************************

 Density functional group M11-L=XC-M11-L
 Functional: XC-M11-L(via MFM 1.6)                                             Gradient terms: 1
 Use grid at  1800.2

 Functional: XC-M11-L                  Factor:  1.0000

 Generated new metagrid on record  1800.2 with target accuracy 1.0D-06 and 57016 points in CPU time    1.8
 Computed new grid on record 1800.1 in CPU time    2.0
   34023 words reserved for DFT integration

 PROGRAM * RKS-SCF (Restricted closed shell Kohn-Sham)     Authors: W. Meyer, H.-J. Werner, P.J. Knowles, 1993

 NUMBER OF ELECTRONS:      21+   21-    SPACE SYMMETRY=1    SPIN SYMMETRY: Singlet 
 CONVERGENCE THRESHOLDS:    1.00E-05 (Density)    1.00E-06 (Energy)
 MAX. NUMBER OF ITERATIONS:       60
 INTERPOLATION TYPE:            DIIS
 INTERPOLATION STEPS:              2 (START)      1 (STEP)
 LEVEL SHIFTS:                  0.00 (CLOSED)  0.00 (OPEN) 



 Use fine grid record 1800.2 for energy threshold  1.0D-06
 Orbital guess generated from atomic densities. Full valence occupancy:   21

 Molecular orbital dump at record        2100.2

 Initial occupancy:  21

 ITERATION    DDIFF          GRAD             ENERGY        2-EL.EN.            DIPOLE MOMENTS         DIIS   ORB.
    1      0.000D+00      0.000D+00      -194.37210119    601.423060   -0.00003   -0.00016   -0.00000    0    start
    2      0.000D+00      0.281D-01      -194.42840545    570.008035   -0.00781   -0.02061    0.00001    1    diag
    3      0.960D-01      0.264D-01      -194.73344296    584.380076   -0.00221   -0.00209   -0.00000    2    diag
    4      0.463D-01      0.181D-03      -194.73346652    584.354904   -0.00284   -0.00599    0.00000    3    diag
    5      0.516D-03      0.189D-04      -194.73346662    584.356163   -0.00264   -0.00438   -0.00000    4    diag
    6      0.545D-04      0.124D-04      -194.73346668    584.356206   -0.00263   -0.00480    0.00000    5    diag
    7      0.244D-04      0.222D-05      -194.73346668    584.356432   -0.00268   -0.00491    0.00000    6    diag
    8      0.422D-05      0.307D-06      -194.73346668    584.356464   -0.00266   -0.00485    0.00000    0    orth

 Final occupancy:  21

 !RKS STATE 1.1 Energy               -194.733466680172
 Nuclear energy                       197.66618863
 One-electron energy                 -653.58212738
 Two-electron energy                  292.17823213
 Density functional                   -30.99576007     XC-M11-L=-30.99576007
 Virial quotient                       -1.01077208
 !RKS STATE 1.1 Dipole moment          -0.00266265    -0.00485346     0.00000078
 Dipole moment /Debye                  -0.00676734    -0.01233546     0.00000197

 Orbital energies:

         1.1          2.1          3.1          4.1          5.1          6.1          7.1          8.1          9.1         10.1
    -10.061682   -10.027653   -10.027607   -10.027441   -10.027215    -0.758849    -0.622654    -0.622571    -0.622401    -0.475493

        11.1         12.1         13.1         14.1         15.1         16.1         17.1         18.1         19.1         20.1
     -0.379952    -0.379880    -0.379752    -0.331449    -0.331340    -0.299540    -0.299507    -0.299406    -0.255826    -0.255712

        21.1         22.1         23.1
     -0.255499     0.329619     0.330147

 HOMO     21.1    -0.255499 =      -6.9525eV
 LUMO     22.1     0.329619 =       8.9694eV
 LUMO-HOMO         0.585118 =      15.9219eV


 **********************************************************************************************************************************
 DATASETS  * FILE   NREC   LENGTH (MB)   RECORD NAMES
              1      20       33.19       500      610      700      900      950      970     1000      129      960     1100   
                                          VAR    BASINP    GEOM    SYMINP    ZMAT    AOBASIS   BASIS     P2S    ABASIS      S 
                                         1400     1410     1200     1210     1080     1600     1650     1300     1700     1800   
                                           T        V       H0       H01     AOSYM     SMH    MOLCAS    ERIS     OPER     GRID   

              2       5        3.06       700     1000      520     1800     2100   
                                         GEOM     BASIS   MCVARS    GRID      RKS  

 PROGRAMS   *        TOTAL        KS       INT
 CPU TIMES  *         9.41      8.69      0.57
 REAL TIME  *        10.94 SEC
 DISK USED  *        37.15 MB      
 **********************************************************************************************************************************


 PROGRAM * Intrinsic Basis Bonding Analysis (IBBA)          Author: G. Knizia

 Molecular orbitals read from record     2100.2  Type=RKS/CANONICAL (state 1.1)
 Fock matrix read from record            2100.2  Type=RKS/TOTAL (state 1.1)
 Orbital energies read from record       2100.2  Type=RKS/CANONICAL (state 1.1)
 Density matrix read from record         2100.2  Type=RKS/CHARGE (state 1.1)

 Number of core orbitals:           5 (   5 )
 Number of closed-shell orbitals:  16 (  16 )

 Basis set MINAO-AUTO-PP generated.      Number of basis functions:   37 

 Polarized AO type:                A = (O Ot + (1-O)(1-Ot)) P12
 Orthogonalization method:         Symmetric (Loewdin)
 Localization functional:          L = sum[A,i] <i|n_A|i>^4 -> max

 Localization group 1:  21 orbitals, occupancy  2.000
 Iterative localization: IB/PM,    7 iter; Final gradient 0.21E-08

 Bond order analysis:       [THRPRINT= 0.020]

   CEN ATOM   CEN ATOM     WIBERG.BO      RENORM.BO
     1   C  -   3   C       0.998399       0.996914
     1   C  -   5   C       0.998283       0.996914
     1   C  -   4   C       0.998281       0.996912
     1   C  -   2   C       0.998111       0.996707

     2   C  -   1   C       0.998111       0.996707
     2   C  -  16   H       0.969860       0.984917
     2   C  -  17   H       0.969860       0.984917
     2   C  -  15   H       0.969805       0.984968

     3   C  -   1   C       0.998399       0.996914
     3   C  -  10   H       0.969826       0.984868
     3   C  -   9   H       0.969826       0.984869
     3   C  -   6   H       0.969793       0.984932

     4   C  -   1   C       0.998281       0.996912
     4   C  -  11   H       0.969810       0.984848
     4   C  -  12   H       0.969751       0.984964
     4   C  -   7   H       0.969738       0.984884

     5   C  -   1   C       0.998283       0.996914
     5   C  -  14   H       0.969810       0.984847
     5   C  -  13   H       0.969751       0.984963
     5   C  -   8   H       0.969738       0.984883

     6   H  -   3   C       0.969793       0.984932

     7   H  -   4   C       0.969738       0.984884

     8   H  -   5   C       0.969738       0.984883

     9   H  -   3   C       0.969826       0.984869

    10   H  -   3   C       0.969826       0.984868

    11   H  -   4   C       0.969810       0.984848

    12   H  -   4   C       0.969751       0.984964

    13   H  -   5   C       0.969751       0.984963

    14   H  -   5   C       0.969810       0.984847

    15   H  -   2   C       0.969805       0.984968

    16   H  -   2   C       0.969860       0.984917

    17   H  -   2   C       0.969860       0.984917


 Valency analysis:

   CEN ATOM   TOT.VALENCE
     1   C       3.998308
     2   C       3.951776
     3   C       3.951820
     4   C       3.951678
     5   C       3.951678
     6   H       0.986045
     7   H       0.986034
     8   H       0.986034
     9   H       0.986117
    10   H       0.986117
    11   H       0.986117
    12   H       0.985996
    13   H       0.985996
    14   H       0.986117
    15   H       0.986021
    16   H       0.986109
    17   H       0.986108

 Total charge composition:

   CEN ATOM         s          p       ELECTRONS ->P.CHARGE
     1   C       2.95699    3.01959      5.97658    0.02342
     2   C       3.02385    3.33641      6.36026   -0.36026
     3   C       3.02380    3.33606      6.35987   -0.35987
     4   C       3.02366    3.33621      6.35986   -0.35986
     5   C       3.02366    3.33621      6.35986   -0.35986
     6   H       0.88187                 0.88187    0.11813
     7   H       0.88182                 0.88182    0.11818
     8   H       0.88182                 0.88182    0.11818
     9   H       0.88217                 0.88217    0.11783
    10   H       0.88217                 0.88217    0.11783
    11   H       0.88218                 0.88218    0.11782
    12   H       0.88166                 0.88166    0.11834
    13   H       0.88166                 0.88166    0.11834
    14   H       0.88218                 0.88218    0.11782
    15   H       0.88177                 0.88177    0.11823
    16   H       0.88214                 0.88214    0.11786
    17   H       0.88214                 0.88214    0.11786

 Total charge composition, AO contributions:

   CEN ATOM SHL      SPHERICAL COMPONENTS
     1   C  1s       1.99127
     1   C  2s       0.96572
     1   C  2p       1.00632    1.00627    1.00700

     2   C  1s       1.99045
     2   C  2s       1.03340
     2   C  2p       1.04474    1.14579    1.14588

     3   C  1s       1.99045
     3   C  2s       1.03335
     3   C  2p       1.13473    1.05565    1.14569

     4   C  1s       1.99045
     4   C  2s       1.03321
     4   C  2p       1.13465    1.12359    1.07797

     5   C  1s       1.99045
     5   C  2s       1.03321
     5   C  2p       1.13465    1.12359    1.07796

     6   H  1s       0.88187

     7   H  1s       0.88182

     8   H  1s       0.88182

     9   H  1s       0.88217

    10   H  1s       0.88217

    11   H  1s       0.88218

    12   H  1s       0.88166

    13   H  1s       0.88166

    14   H  1s       0.88218

    15   H  1s       0.88177

    16   H  1s       0.88214

    17   H  1s       0.88214

 Summary of localized orbital composition:   [THRPRINT= 0.020]

   ORB  GRP  ORB.ENERGY      CENTERS/CHARGES
     1   1    -9.961036      C  1   2.000
     2   1    -9.912665      C  4   2.000
     3   1    -9.912665      C  5   2.000
     4   1    -9.912477      C  3   2.000
     5   1    -9.912256      C  2   2.000
     6   1    -0.487767      C  5   0.997   C  1   0.981   (other: 0.022)
     7   1    -0.487762      C  4   0.997   C  1   0.981   (other: 0.022)
     8   1    -0.487429      C  3   0.997   C  1   0.981   (other: 0.022)
     9   1    -0.486985      C  2   0.997   C  1   0.980   (other: 0.022)
    10   1    -0.432024      C  4   1.117   H 12   0.875
    11   1    -0.432021      C  5   1.117   H 13   0.875
    12   1    -0.431912      C  4   1.117   H  7   0.875
    13   1    -0.431912      C  5   1.117   H  8   0.875
    14   1    -0.431748      C  3   1.117   H  6   0.876
    15   1    -0.431650      C  2   1.117   H 17   0.876
    16   1    -0.431648      C  2   1.117   H 16   0.876
    17   1    -0.431530      C  3   1.117   H  9   0.876
    18   1    -0.431528      C  3   1.117   H 10   0.876
    19   1    -0.431482      C  4   1.117   H 11   0.876
    20   1    -0.431482      C  5   1.117   H 14   0.876
    21   1    -0.431447      C  2   1.117   H 15   0.875

 Localized orbitals saved to record      2100.2  (orbital set 2)


 **********************************************************************************************************************************
 DATASETS  * FILE   NREC   LENGTH (MB)   RECORD NAMES
              1      20       33.19       500      610      700      900      950      970     1000      129      960     1100   
                                          VAR    BASINP    GEOM    SYMINP    ZMAT    AOBASIS   BASIS     P2S    ABASIS      S 
                                         1400     1410     1200     1210     1080     1600     1650     1300     1700     1800   
                                           T        V       H0       H01     AOSYM     SMH    MOLCAS    ERIS     OPER     GRID   

              2       5        3.07       700     1000      520     1800     2100   
                                         GEOM     BASIS   MCVARS    GRID      RKS  

 PROGRAMS   *        TOTAL      IBBA        KS       INT
 CPU TIMES  *         9.44      0.03      8.69      0.57
 REAL TIME  *        11.08 SEC
 DISK USED  *        37.15 MB      
 **********************************************************************************************************************************
 Molecular orbitals read from record     2100.2  Type=RKS/LOCAL(IBO)  
 Occupation numbers read from record     2100.2  Type=RKS/LOCAL(IBO)  
 Orbital energies read from record       2100.2  Type=RKS/LOCAL(IBO)  
 Redundancy group numbers read from rec  2100.2  Type=RKS/LOCAL(IBO)  

 IBBA/STO-3G energy=      0.000000000000

        KS-SCF  
   -194.73346668
 **********************************************************************************************************************************
 Molpro calculation terminated
