
 Primary working directories    : /tmp/sb13343
 Secondary working directories  : /tmp/sb13343
 Wavefunction directory         : /panfs/panasas01/chem/sb13343/wfu/
 Main file repository           : /tmp/sb13343/

 SHA1      : b4a5b34a9e711420743f49e6833241d17c61fb3c
 NAME      : 2099.9.b4a5b34
 ARCHNAME  : linux/x86_64_openmp
 FC        : /cm/shared/languages/GCC-6.1/bin/gfortran
 BLASLIB   : -lblas
 id        : simonbennie

 Nodes     nprocs
 node32-002    1

 Using customized tuning parameters: mindgm=1; mindgv=20; mindgc=4; mindgr=1; noblas=0; minvec=7
 default implementation of scratch files=df  

 memory,500,m
 geomtyp=xyz
 nosym
 noorient
 geometry={
 C         -1.53233        0.02247        0.00000
 C         -0.00192        0.01421        0.00000
 O          0.37239        1.40356        0.00000
 H          1.34248        1.44036        0.00000
 H         -1.92991       -0.99819        0.00000
 H         -1.90797        0.54382       -0.88653
 H         -1.90797        0.54382        0.88653
 C          0.54303       -0.66466       -1.26580
 C          0.54303       -0.66466        1.26580
 H          0.17836       -0.14752       -2.15943
 H          0.17836       -0.14752        2.15943
 H          0.23752       -1.71600       -1.32280
 H          0.23752       -1.71600        1.32280
 H          1.64084       -0.63767       -1.28032
 H          1.64084       -0.63767        1.28032
 }
 basis={ default,sto-3g }
 {uks,BECKE,direct;wf,42,1,0}
 {ibba,bonds=1}

 Variables initialized (895), CPU time= 0.00 sec
 Commands  initialized (725), CPU time= 0.02 sec, 591 directives.
 Default parameters read. Elapsed time= 0.13 sec

 Checking input...
 Passed
1


                                         ***  PROGRAM SYSTEM MOLPRO  ***
                                       Copyright, TTI GmbH Stuttgart, 2015
                                    Version 2099.9 linked May 26 2017 16:03:21


 **********************************************************************************************************************************
 LABEL *                                                                                 
  64 bit serial version                                                                  DATE: 09-Jun-17          TIME: 03:18:39  
 **********************************************************************************************************************************

 SHA1:             b4a5b34a9e711420743f49e6833241d17c61fb3c
 **********************************************************************************************************************************
 SETTING GEOMTYP        =    XYZ

 Variable memory set to  500000000 words,  buffer space 

 ZSYMEL=NOSYM

 SETTING BASIS          =    STO-3G


 Recomputing integrals since basis changed


 Using spherical harmonics

 Library entry C      S STO-3G               selected for orbital group  1
 Library entry C      P STO-3G               selected for orbital group  1
 Library entry O      S STO-3G               selected for orbital group  2
 Library entry O      P STO-3G               selected for orbital group  2
 Library entry H      S STO-3G               selected for orbital group  3


 PROGRAM * SEWARD (Integral evaluation for generally contracted gaussian basis sets)     Author: Roland Lindh, 1990

 Geometry written to block  1 of record 700


 Point group  C1  



 ATOMIC COORDINATES

 NR  ATOM    CHARGE       X              Y              Z

   1  C       6.00   -2.895684032    0.042462146    0.000000000
   2  C       6.00   -0.003628274    0.026853008    0.000000000
   3  O       8.00    0.703715112    2.652343999    0.000000000
   4  H       1.00    2.536919528    2.721885921    0.000000000
   5  H       1.00   -3.647001345   -1.886305720    0.000000000
   6  H       1.00   -3.605540754    1.027670861   -1.675298901
   7  H       1.00   -3.605540754    1.027670861    1.675298901
   8  C       6.00    1.026177977   -1.256025366   -2.392015328
   9  C       6.00    1.026177977   -1.256025366    2.392015328
  10  H       1.00    0.337051552   -0.278772398   -4.080731285
  11  H       1.00    0.337051552   -0.278772398    4.080731285
  12  H       1.00    0.448847749   -3.242770030   -2.499729718
  13  H       1.00    0.448847749   -3.242770030    2.499729718
  14  H       1.00    3.100738214   -1.205021658   -2.419454152
  15  H       1.00    3.100738214   -1.205021658    2.419454152

 Bond lengths in Bohr (Angstrom)

 1-2  2.892097881  1-5  2.069933136  1-6  2.069096224  1-7  2.069096224  2-3  2.719106031
     ( 1.530432290)     ( 1.095361444)     ( 1.094918569)     ( 1.094918569)     ( 1.438888946)

  2- 8  2.903104402   2- 9  2.903104402   3- 4  1.834522965   8-10  2.069222119   8-12  2.071730422
       ( 1.536256691)       ( 1.536256691)       ( 0.970787746)       ( 1.094985190)       ( 1.096312526)

  8-14  2.075368508   9-11  2.069222119   9-13  2.071730422   9-15  2.075368508
       ( 1.098237719)       ( 1.094985190)       ( 1.096312526)       ( 1.098237719)

 Bond angles

  1-2-3  104.76902697   1-2-8  110.92255387   1-2-9  110.92255387   2-1-5  110.97328220

  2- 1- 6  110.22090701   2- 1- 7  110.22090701   2- 3- 4  107.25071562   2- 8-10  110.21836376

  2- 8-12  111.57747468   2- 8-14  110.77023896   2- 9-11  110.21836376   2- 9-13  111.57747468

  2- 9-15  110.77023896   3- 2- 8  109.53648747   3- 2- 9  109.53648747   5- 1- 6  108.61190457

  5- 1- 7  108.61190457   6- 1- 7  108.12870271   8- 2- 9  110.96453384  10- 8-12  108.52192632

 10- 8-14  108.08997829  11- 9-13  108.52192632  11- 9-15  108.08997829  12- 8-14  107.54424578

 13- 9-15  107.54424578

 NUCLEAR CHARGE:                   42
 NUMBER OF PRIMITIVE AOS:         105
 NUMBER OF SYMMETRY AOS:          105
 NUMBER OF CONTRACTIONS:           35   (  35A   )
 NUMBER OF CORE ORBITALS:           5   (   5A   )
 NUMBER OF VALENCE ORBITALS:       30   (  30A   )


 NUCLEAR REPULSION ENERGY  198.77359127


 Eigenvalues of metric

         1 0.207E+00 0.227E+00 0.228E+00 0.304E+00 0.354E+00 0.360E+00 0.361E+00 0.363E+00


 Contracted 2-electron integrals neglected if value below      1.0D-11
 AO integral compression algorithm  1   Integral accuracy      1.0D-11

     1.573 MB (compressed) written to integral file ( 87.8%)


 NUMBER OF SORTED TWO-ELECTRON INTEGRALS:     198765.     BUFFER LENGTH:  32768
 NUMBER OF SEGMENTS:   1  SEGMENT LENGTH:     198765      RECORD LENGTH: 524288

 Memory used in sort:       0.76 MW

 SORT1 READ      224962. AND WROTE      188577. INTEGRALS IN      1 RECORDS. CPU TIME:     0.00 SEC, REAL TIME:     0.02 SEC
 SORT2 READ      188577. AND WROTE      198765. INTEGRALS IN      6 RECORDS. CPU TIME:     0.02 SEC, REAL TIME:     0.03 SEC

 FILE SIZES:   FILE 1:    31.8 MBYTE,  FILE 4:     4.2 MBYTE,   TOTAL:     36.0 MBYTE

 OPERATOR DM      FOR CENTER  0  COORDINATES:    0.000000    0.000000    0.000000


 **********************************************************************************************************************************
 DATASETS  * FILE   NREC   LENGTH (MB)   RECORD NAMES
              1      19       31.10       500      610      700      900      950      970     1000      129      960     1100   
                                          VAR    BASINP    GEOM    SYMINP    ZMAT    AOBASIS   BASIS     P2S    ABASIS      S 
                                         1400     1410     1200     1210     1080     1600     1650     1300     1700   
                                           T        V       H0       H01     AOSYM     SMH    MOLCAS    ERIS     OPER   

 PROGRAMS   *        TOTAL       INT
 CPU TIMES  *         0.60      0.44
 REAL TIME  *         2.00 SEC
 DISK USED  *        36.55 MB      
 **********************************************************************************************************************************

 Density functional group BECKE=B88
 Functional: B88(Automatically generated (new) B88)                            Gradient terms: 1
 Use grid at  1800.2

 Functional: B88                       Factor:  1.0000

 Generated new metagrid on record  1800.2 with target accuracy 1.0D-06 and 53396 points in CPU time    1.7
 Computed new grid on record 1800.1 in CPU time    1.9
   32369 words reserved for DFT integration

 PROGRAM * UKS-SCF (Unrestricted Kohn-Sham)     Authors: W. Meyer, H.-J. Werner, P.J. Knowles, 1993

 NUMBER OF ELECTRONS:      21+   21-    SPACE SYMMETRY=1    SPIN SYMMETRY: Singlet 
 CONVERGENCE THRESHOLDS:    1.00E-05 (Density)    1.00E-06 (Energy)
 MAX. NUMBER OF ITERATIONS:       60
 INTERPOLATION TYPE:            DIIS
 INTERPOLATION STEPS:              2 (START)      1 (STEP)
 LEVEL SHIFTS:                 -0.20 (ALPHA)  -0.20 (BETA) 



 Use fine grid record 1800.2 for energy threshold  1.0D-06
 Orbital guess generated from atomic densities. Full valence occupancy:   21

 Molecular orbital dump at record        2200.2

 Initial alpha occupation  21
 Initial beta  occupation  21

 ITERATION    DDIFF          GRAD             ENERGY        2-EL.EN.            DIPOLE MOMENTS         DIIS
    1      0.000D+00      0.000D+00      -228.86974379    638.847601    0.75672   -1.01293    0.00000    0
    2      0.600D-01      0.193D-01      -229.18291198    620.175156    0.20876   -0.29598    0.00000    1
    3      0.104D-01      0.417D-02      -229.19609490    622.998585    0.29756   -0.32936    0.00000    2
    4      0.103D-02      0.413D-03      -229.19627017    622.960699    0.30506   -0.33835    0.00000    3
    5      0.508D-03      0.129D-03      -229.19629712    622.955129    0.30505   -0.33136    0.00000    4
    6      0.147D-03      0.310D-04      -229.19629910    622.953421    0.30539   -0.33110    0.00000    5
    7      0.327D-04      0.684D-05      -229.19629915    622.954035    0.30510   -0.33074    0.00000    5
    8      0.110D-04      0.464D-05      -229.19629917    622.953628    0.30517   -0.33088    0.00000    6
    9      0.172D-05      0.382D-06      -229.19629917    622.953698    0.30518   -0.33087    0.00000    6
   10      0.582D-06      0.195D-06      -229.19629917    622.953663    0.30518   -0.33087    0.00000    6

 Final alpha occupancy:  21
 Final beta  occupancy:  21

 !UKS STATE 1.1 Energy               -229.196299168257
 Nuclear energy                       198.77359127
 One-electron energy                 -706.86120924
 Two-electron energy                  311.47683144
 Density functional                   -32.58551264     B88=-32.58551264
 Virial quotient                       -1.00955567
 !UKS STATE 1.1 Dipole moment           0.30517649    -0.33087104     0.00000000
 Dipole moment /Debye                   0.77563046    -0.84093521     0.00000000

 Orbital energies for positive spin:

         1.1          2.1          3.1          4.1          5.1          6.1          7.1          8.1          9.1         10.1
    -18.457371    -9.757827    -9.701986    -9.701268    -9.701183    -0.811988    -0.625314    -0.545044    -0.544351    -0.416223

        11.1         12.1         13.1         14.1         15.1         16.1         17.1         18.1         19.1         20.1
     -0.342685    -0.316275    -0.315645    -0.276192    -0.271751    -0.248448    -0.248238    -0.216452    -0.212824    -0.110183

        21.1         22.1         23.1
     -0.025202     0.291579     0.349897

 Orbital energies for negative spin:

         1.1          2.1          3.1          4.1          5.1          6.1          7.1          8.1          9.1         10.1
    -18.457371    -9.757827    -9.701986    -9.701268    -9.701183    -0.811988    -0.625314    -0.545044    -0.544351    -0.416223

        11.1         12.1         13.1         14.1         15.1         16.1         17.1         18.1         19.1         20.1
     -0.342685    -0.316275    -0.315645    -0.276192    -0.271751    -0.248448    -0.248238    -0.216452    -0.212824    -0.110183

        21.1         22.1         23.1
     -0.025202     0.291579     0.349897

 HOMO     21.1    -0.025202 =      -0.6858eV
 LUMO     22.1     0.291579 =       7.9343eV
 LUMO-HOMO         0.316781 =       8.6200eV

 EXPECTATION VALUE OF S**2:            -0.00000000

 Natural orbitals saved to record    2200.2 (Orbital set 3)

 Orbital spaces for UNO-CAS (Min. occupation: 0.020  Max. occupation: 1.980):

 Closed:       21
 Active:        0


 **********************************************************************************************************************************
 DATASETS  * FILE   NREC   LENGTH (MB)   RECORD NAMES
              1      20       32.81       500      610      700      900      950      970     1000      129      960     1100   
                                          VAR    BASINP    GEOM    SYMINP    ZMAT    AOBASIS   BASIS     P2S    ABASIS      S 
                                         1400     1410     1200     1210     1080     1600     1650     1300     1700     1800   
                                           T        V       H0       H01     AOSYM     SMH    MOLCAS    ERIS     OPER     GRID   

              2       5        3.05       700     1000      520     1800     2200   
                                         GEOM     BASIS   MCVARS    GRID      UKS  

 PROGRAMS   *        TOTAL       UKS       INT
 CPU TIMES  *         6.43      5.83      0.44
 REAL TIME  *        11.16 SEC
 DISK USED  *        36.55 MB      
 **********************************************************************************************************************************


 PROGRAM * Intrinsic Basis Bonding Analysis (IBBA)          Author: G. Knizia

 Molecular orbitals read from record     2200.2  Type=UKS/ALPHA (state 1.1)
 Fock matrix read from record            2200.2  Type=UKS/TOTAL (state 1.1)
 Orbital energies read from record       2200.2  Type=UKS/ALPHA (state 1.1)
 Density matrix read from record         2200.2  Type=UKS/CHARGE (state 1.1)

 Number of core orbitals:           5 (   5 )
 Number of closed-shell orbitals:  16 (  16 )

 Basis set MINAO-AUTO-PP generated.      Number of basis functions:   35 

 Polarized AO type:                A = (O Ot + (1-O)(1-Ot)) P12
 Orthogonalization method:         Symmetric (Loewdin)
 Localization functional:          L = sum[A,i] <i|n_A|i>^4 -> max

 Localization group 1:  21 orbitals, occupancy  2.000
 Iterative localization: IB/PM,    7 iter; Final gradient 0.12E-08

 Bond order analysis:       [THRPRINT= 0.020]

   CEN ATOM   CEN ATOM     WIBERG.BO      RENORM.BO
     1   C  -   2   C       0.989885       0.985472
     1   C  -   5   H       0.969025       0.989561
     1   C  -   6   H       0.965795       0.986576
     1   C  -   7   H       0.965795       0.986576

     2   C  -   3   O       1.005538       0.983673
     2   C  -   1   C       0.989885       0.985472
     2   C  -   8   C       0.984899       0.958669
     2   C  -   9   C       0.984899       0.958669

     3   O  -   2   C       1.005538       0.983673
     3   O  -   4   H       0.934659       0.980932
     3   O  -   9   C       0.029973       0.015497
     3   O  -   8   C       0.029973       0.015497

     4   H  -   3   O       0.934659       0.980932

     5   H  -   1   C       0.969025       0.989561

     6   H  -   1   C       0.965795       0.986576

     7   H  -   1   C       0.965795       0.986576

     8   C  -   2   C       0.984899       0.958669
     8   C  -  14   H       0.968307       0.985805
     8   C  -  12   H       0.966800       0.986527
     8   C  -  10   H       0.966657       0.986270
     8   C  -   3   O       0.029973       0.015497

     9   C  -   2   C       0.984899       0.958669
     9   C  -  15   H       0.968307       0.985805
     9   C  -  13   H       0.966800       0.986527
     9   C  -  11   H       0.966657       0.986270
     9   C  -   3   O       0.029973       0.015497

    10   H  -   8   C       0.966657       0.986270

    11   H  -   9   C       0.966657       0.986270

    12   H  -   8   C       0.966800       0.986527

    13   H  -   9   C       0.966800       0.986527

    14   H  -   8   C       0.968307       0.985805

    15   H  -   9   C       0.968307       0.985805


 Valency analysis:

   CEN ATOM   TOT.VALENCE
     1   C       3.941896
     2   C       3.974361
     3   O       2.052776
     4   H       0.953002
     5   H       0.985333
     6   H       0.983975
     7   H       0.983975
     8   C       3.944532
     9   C       3.944532
    10   H       0.984588
    11   H       0.984588
    12   H       0.985072
    13   H       0.985072
    14   H       0.986697
    15   H       0.986697

 Total charge composition:

   CEN ATOM         s          p       ELECTRONS ->P.CHARGE
     1   C       2.99464    3.37039      6.36503   -0.36503
     2   C       2.94580    2.93245      5.87825    0.12175
     3   O       3.68679    4.62812      8.31491   -0.31491
     4   H       0.78321                 0.78321    0.21679
     5   H       0.87889                 0.87889    0.12111
     6   H       0.87341                 0.87341    0.12659
     7   H       0.87341                 0.87341    0.12659
     8   C       2.99995    3.37816      6.37811   -0.37811
     9   C       2.99995    3.37816      6.37811   -0.37811
    10   H       0.87586                 0.87586    0.12414
    11   H       0.87586                 0.87586    0.12414
    12   H       0.87782                 0.87782    0.12218
    13   H       0.87782                 0.87782    0.12218
    14   H       0.88466                 0.88466    0.11534
    15   H       0.88466                 0.88466    0.11534

 Total charge composition, AO contributions:

   CEN ATOM SHL      SPHERICAL COMPONENTS
     1   C  1s       1.99206
     1   C  2s       1.00258
     1   C  2p       1.04900    1.15698    1.16440

     2   C  1s       1.99344
     2   C  2s       0.95236
     2   C  2p       1.02843    0.87753    1.02649

     3   O  1s       1.99738
     3   O  2s       1.68941
     3   O  2p       1.33601    1.34146    1.95065

     4   H  1s       0.78321

     5   H  1s       0.87889

     6   H  1s       0.87341

     7   H  1s       0.87341

     8   C  1s       1.99216
     8   C  2s       1.00779
     8   C  2p       1.14023    1.14127    1.09666

     9   C  1s       1.99216
     9   C  2s       1.00779
     9   C  2p       1.14023    1.14127    1.09666

    10   H  1s       0.87586

    11   H  1s       0.87586

    12   H  1s       0.87782

    13   H  1s       0.87782

    14   H  1s       0.88466

    15   H  1s       0.88466

 Summary of localized orbital composition:   [THRPRINT= 0.020]

   ORB  GRP  ORB.ENERGY      CENTERS/CHARGES
     1   1   -18.288407      O  3   2.000
     2   1    -9.666811      C  2   2.000
     3   1    -9.592788      C  8   2.000
     4   1    -9.592788      C  9   2.000
     5   1    -9.592685      C  1   2.000
     6   1    -0.547353      O  3   1.215   H  4   0.775
     7   1    -0.503554      O  3   1.158   C  2   0.825
     8   1    -0.425400      C  2   0.992   C  1   0.985   (other: 0.023)
     9   1    -0.424308      C  8   1.000   C  2   0.986
    10   1    -0.424308      C  9   1.000   C  2   0.986
    11   1    -0.385989      O  3   1.985
    12   1    -0.376528      C  9   1.113   H 15   0.878
    13   1    -0.376528      C  8   1.113   H 14   0.878
    14   1    -0.375118      C  9   1.120   H 13   0.870
    15   1    -0.375118      C  8   1.120   H 12   0.870
    16   1    -0.374185      C  1   1.118   H  5   0.872
    17   1    -0.372567      C  9   1.122   H 11   0.869
    18   1    -0.372567      C  8   1.122   H 10   0.869
    19   1    -0.368772      C  1   1.124   H  6   0.867
    20   1    -0.368772      C  1   1.124   H  7   0.867
    21   1    -0.041907      O  3   1.951   C  2   0.023   (other: 0.026)

 Localized orbitals saved to record      2200.2  (orbital set 4)


 **********************************************************************************************************************************
 DATASETS  * FILE   NREC   LENGTH (MB)   RECORD NAMES
              1      20       32.81       500      610      700      900      950      970     1000      129      960     1100   
                                          VAR    BASINP    GEOM    SYMINP    ZMAT    AOBASIS   BASIS     P2S    ABASIS      S 
                                         1400     1410     1200     1210     1080     1600     1650     1300     1700     1800   
                                           T        V       H0       H01     AOSYM     SMH    MOLCAS    ERIS     OPER     GRID   

              2       5        3.06       700     1000      520     1800     2200   
                                         GEOM     BASIS   MCVARS    GRID      UKS  

 PROGRAMS   *        TOTAL      IBBA       UKS       INT
 CPU TIMES  *         6.47      0.04      5.83      0.44
 REAL TIME  *        11.31 SEC
 DISK USED  *        36.55 MB      
 **********************************************************************************************************************************
 Molecular orbitals read from record     2200.2  Type=UKS/LOCAL(IBO)  
 Occupation numbers read from record     2200.2  Type=UKS/LOCAL(IBO)  
 Orbital energies read from record       2200.2  Type=UKS/LOCAL(IBO)  
 Redundancy group numbers read from rec  2200.2  Type=UKS/BETA (state 1.1)

 IBBA/STO-3G energy=      0.000000000000

        UKS-SCF 
   -229.19629917
 **********************************************************************************************************************************
 Molpro calculation terminated
