
 Primary working directories    : /tmp/sb13343
 Secondary working directories  : /tmp/sb13343
 Wavefunction directory         : /panfs/panasas01/chem/sb13343/wfu/
 Main file repository           : /tmp/sb13343/

 SHA1      : b4a5b34a9e711420743f49e6833241d17c61fb3c
 NAME      : 2099.9.b4a5b34
 ARCHNAME  : linux/x86_64_openmp
 FC        : /cm/shared/languages/GCC-6.1/bin/gfortran
 BLASLIB   : -lblas
 id        : simonbennie

 Nodes     nprocs
 node32-002    1

 Using customized tuning parameters: mindgm=1; mindgv=20; mindgc=4; mindgr=1; noblas=0; minvec=7
 default implementation of scratch files=df  

 memory,500,m
 geomtyp=xyz
 nosym
 noorient
 geometry={
 C         -1.53233        0.02247        0.00000
 C         -0.00192        0.01421        0.00000
 O          0.37239        1.40356        0.00000
 H          1.34248        1.44036        0.00000
 H         -1.92991       -0.99819        0.00000
 H         -1.90797        0.54382       -0.88653
 H         -1.90797        0.54382        0.88653
 C          0.54303       -0.66466       -1.26580
 C          0.54303       -0.66466        1.26580
 H          0.17836       -0.14752       -2.15943
 H          0.17836       -0.14752        2.15943
 H          0.23752       -1.71600       -1.32280
 H          0.23752       -1.71600        1.32280
 H          1.64084       -0.63767       -1.28032
 H          1.64084       -0.63767        1.28032
 }
 basis={ default,sto-3g }
 {ks,MM06-L,direct;wf,42,1,0}
 {ibba,bonds=1}

 Variables initialized (895), CPU time= 0.00 sec
 Commands  initialized (725), CPU time= 0.01 sec, 591 directives.
 Default parameters read. Elapsed time= 0.12 sec

 Checking input...
 Passed
1


                                         ***  PROGRAM SYSTEM MOLPRO  ***
                                       Copyright, TTI GmbH Stuttgart, 2015
                                    Version 2099.9 linked May 26 2017 16:03:21


 **********************************************************************************************************************************
 LABEL *                                                                                 
  64 bit serial version                                                                  DATE: 09-Jun-17          TIME: 03:21:19  
 **********************************************************************************************************************************

 SHA1:             b4a5b34a9e711420743f49e6833241d17c61fb3c
 **********************************************************************************************************************************
 SETTING GEOMTYP        =    XYZ

 Variable memory set to  500000000 words,  buffer space 

 ZSYMEL=NOSYM

 SETTING BASIS          =    STO-3G


 Recomputing integrals since basis changed


 Using spherical harmonics

 Library entry C      S STO-3G               selected for orbital group  1
 Library entry C      P STO-3G               selected for orbital group  1
 Library entry O      S STO-3G               selected for orbital group  2
 Library entry O      P STO-3G               selected for orbital group  2
 Library entry H      S STO-3G               selected for orbital group  3


 PROGRAM * SEWARD (Integral evaluation for generally contracted gaussian basis sets)     Author: Roland Lindh, 1990

 Geometry written to block  1 of record 700


 Point group  C1  



 ATOMIC COORDINATES

 NR  ATOM    CHARGE       X              Y              Z

   1  C       6.00   -2.895684032    0.042462146    0.000000000
   2  C       6.00   -0.003628274    0.026853008    0.000000000
   3  O       8.00    0.703715112    2.652343999    0.000000000
   4  H       1.00    2.536919528    2.721885921    0.000000000
   5  H       1.00   -3.647001345   -1.886305720    0.000000000
   6  H       1.00   -3.605540754    1.027670861   -1.675298901
   7  H       1.00   -3.605540754    1.027670861    1.675298901
   8  C       6.00    1.026177977   -1.256025366   -2.392015328
   9  C       6.00    1.026177977   -1.256025366    2.392015328
  10  H       1.00    0.337051552   -0.278772398   -4.080731285
  11  H       1.00    0.337051552   -0.278772398    4.080731285
  12  H       1.00    0.448847749   -3.242770030   -2.499729718
  13  H       1.00    0.448847749   -3.242770030    2.499729718
  14  H       1.00    3.100738214   -1.205021658   -2.419454152
  15  H       1.00    3.100738214   -1.205021658    2.419454152

 Bond lengths in Bohr (Angstrom)

 1-2  2.892097881  1-5  2.069933136  1-6  2.069096224  1-7  2.069096224  2-3  2.719106031
     ( 1.530432290)     ( 1.095361444)     ( 1.094918569)     ( 1.094918569)     ( 1.438888946)

  2- 8  2.903104402   2- 9  2.903104402   3- 4  1.834522965   8-10  2.069222119   8-12  2.071730422
       ( 1.536256691)       ( 1.536256691)       ( 0.970787746)       ( 1.094985190)       ( 1.096312526)

  8-14  2.075368508   9-11  2.069222119   9-13  2.071730422   9-15  2.075368508
       ( 1.098237719)       ( 1.094985190)       ( 1.096312526)       ( 1.098237719)

 Bond angles

  1-2-3  104.76902697   1-2-8  110.92255387   1-2-9  110.92255387   2-1-5  110.97328220

  2- 1- 6  110.22090701   2- 1- 7  110.22090701   2- 3- 4  107.25071562   2- 8-10  110.21836376

  2- 8-12  111.57747468   2- 8-14  110.77023896   2- 9-11  110.21836376   2- 9-13  111.57747468

  2- 9-15  110.77023896   3- 2- 8  109.53648747   3- 2- 9  109.53648747   5- 1- 6  108.61190457

  5- 1- 7  108.61190457   6- 1- 7  108.12870271   8- 2- 9  110.96453384  10- 8-12  108.52192632

 10- 8-14  108.08997829  11- 9-13  108.52192632  11- 9-15  108.08997829  12- 8-14  107.54424578

 13- 9-15  107.54424578

 NUCLEAR CHARGE:                   42
 NUMBER OF PRIMITIVE AOS:         105
 NUMBER OF SYMMETRY AOS:          105
 NUMBER OF CONTRACTIONS:           35   (  35A   )
 NUMBER OF CORE ORBITALS:           5   (   5A   )
 NUMBER OF VALENCE ORBITALS:       30   (  30A   )


 NUCLEAR REPULSION ENERGY  198.77359127


 Eigenvalues of metric

         1 0.207E+00 0.227E+00 0.228E+00 0.304E+00 0.354E+00 0.360E+00 0.361E+00 0.363E+00


 Contracted 2-electron integrals neglected if value below      1.0D-11
 AO integral compression algorithm  1   Integral accuracy      1.0D-11

     1.573 MB (compressed) written to integral file ( 87.8%)


 NUMBER OF SORTED TWO-ELECTRON INTEGRALS:     198765.     BUFFER LENGTH:  32768
 NUMBER OF SEGMENTS:   1  SEGMENT LENGTH:     198765      RECORD LENGTH: 524288

 Memory used in sort:       0.76 MW

 SORT1 READ      224962. AND WROTE      188577. INTEGRALS IN      1 RECORDS. CPU TIME:     0.00 SEC, REAL TIME:     0.02 SEC
 SORT2 READ      188577. AND WROTE      198765. INTEGRALS IN      6 RECORDS. CPU TIME:     0.02 SEC, REAL TIME:     0.04 SEC

 FILE SIZES:   FILE 1:    31.8 MBYTE,  FILE 4:     4.2 MBYTE,   TOTAL:     36.0 MBYTE

 OPERATOR DM      FOR CENTER  0  COORDINATES:    0.000000    0.000000    0.000000


 **********************************************************************************************************************************
 DATASETS  * FILE   NREC   LENGTH (MB)   RECORD NAMES
              1      19       31.10       500      610      700      900      950      970     1000      129      960     1100   
                                          VAR    BASINP    GEOM    SYMINP    ZMAT    AOBASIS   BASIS     P2S    ABASIS      S 
                                         1400     1410     1200     1210     1080     1600     1650     1300     1700   
                                           T        V       H0       H01     AOSYM     SMH    MOLCAS    ERIS     OPER   

 PROGRAMS   *        TOTAL       INT
 CPU TIMES  *         0.62      0.47
 REAL TIME  *         3.15 SEC
 DISK USED  *        36.55 MB      
 **********************************************************************************************************************************

 Density functional group MM06-L=M06LX+M06LC
 Functional: M06LX(Automatically generated (new) M06LX)                        Gradient terms: 2
 Functional: M06LC(Automatically generated (new) M06LC)                        Gradient terms: 2
 Use grid at  1800.2

 Functional: M06LX                     Factor:  1.0000
 Functional: M06LC                     Factor:  1.0000

 Generated new metagrid on record  1800.2 with target accuracy 1.0D-06 and 53396 points in CPU time    1.6
 Computed new grid on record 1800.1 in CPU time    1.8
   59039 words reserved for DFT integration

 PROGRAM * RKS-SCF (Restricted closed shell Kohn-Sham)     Authors: W. Meyer, H.-J. Werner, P.J. Knowles, 1993

 NUMBER OF ELECTRONS:      21+   21-    SPACE SYMMETRY=1    SPIN SYMMETRY: Singlet 
 CONVERGENCE THRESHOLDS:    1.00E-05 (Density)    1.00E-06 (Energy)
 MAX. NUMBER OF ITERATIONS:       60
 INTERPOLATION TYPE:            DIIS
 INTERPOLATION STEPS:              2 (START)      1 (STEP)
 LEVEL SHIFTS:                  0.00 (CLOSED)  0.00 (OPEN) 



 Use fine grid record 1800.2 for energy threshold  1.0D-06
 Orbital guess generated from atomic densities. Full valence occupancy:   21

 Molecular orbital dump at record        2100.2

 Initial occupancy:  21

 ITERATION    DDIFF          GRAD             ENERGY        2-EL.EN.            DIPOLE MOMENTS         DIIS   ORB.
    1      0.000D+00      0.000D+00      -230.34005099    639.499530    0.75748   -1.10278    0.00000    0    start
    2      0.000D+00      0.274D-01      -230.40706678    610.836721   -0.17689    0.21261    0.00000    1    diag
    3      0.944D-01      0.246D-01      -230.65299202    623.726488    0.37314   -0.35411    0.00000    2    diag
    4      0.456D-01      0.819D-03      -230.65321474    623.769655    0.33921   -0.38872    0.00000    3    diag
    5      0.210D-02      0.399D-03      -230.65327384    623.761443    0.34050   -0.37524    0.00000    4    diag
    6      0.738D-03      0.375D-04      -230.65327451    623.767834    0.34342   -0.37702    0.00000    5    diag
    7      0.931D-04      0.665D-05      -230.65327453    623.768763    0.34292   -0.37660    0.00000    6    diag
    8      0.168D-04      0.314D-05      -230.65327453    623.768890    0.34297   -0.37675    0.00000    7    diag
    9      0.589D-05      0.429D-06      -230.65327453    623.768940    0.34299   -0.37672    0.00000    0    orth

 Final occupancy:  21

 !RKS STATE 1.1 Energy               -230.653274529486
 Nuclear energy                       198.77359127
 One-electron energy                 -707.23471707
 Two-electron energy                  311.88446997
 Density functional                   -34.07661870     M06LX=-32.57010959 M06LC= -1.50650911
 Virial quotient                       -1.01462883
 !RKS STATE 1.1 Dipole moment           0.34299076    -0.37672346     0.00000000
 Dipole moment /Debye                   0.87173845    -0.95747281     0.00000000

 Orbital energies:

         1.1          2.1          3.1          4.1          5.1          6.1          7.1          8.1          9.1         10.1
    -18.650503    -9.928235    -9.862587    -9.862453    -9.862365    -0.907393    -0.708026    -0.621313    -0.619960    -0.482638

        11.1         12.1         13.1         14.1         15.1         16.1         17.1         18.1         19.1         20.1
     -0.401906    -0.372097    -0.372077    -0.329658    -0.325173    -0.302282    -0.300486    -0.268072    -0.265404    -0.166847

        21.1         22.1         23.1
     -0.071703     0.269933     0.334036

 HOMO     21.1    -0.071703 =      -1.9511eV
 LUMO     22.1     0.269933 =       7.3452eV
 LUMO-HOMO         0.341635 =       9.2964eV


 **********************************************************************************************************************************
 DATASETS  * FILE   NREC   LENGTH (MB)   RECORD NAMES
              1      20       32.81       500      610      700      900      950      970     1000      129      960     1100   
                                          VAR    BASINP    GEOM    SYMINP    ZMAT    AOBASIS   BASIS     P2S    ABASIS      S 
                                         1400     1410     1200     1210     1080     1600     1650     1300     1700     1800   
                                           T        V       H0       H01     AOSYM     SMH    MOLCAS    ERIS     OPER     GRID   

              2       5        3.02       700     1000      520     1800     2100   
                                         GEOM     BASIS   MCVARS    GRID      RKS  

 PROGRAMS   *        TOTAL        KS       INT
 CPU TIMES  *        10.56      9.94      0.47
 REAL TIME  *        18.02 SEC
 DISK USED  *        36.55 MB      
 **********************************************************************************************************************************


 PROGRAM * Intrinsic Basis Bonding Analysis (IBBA)          Author: G. Knizia

 Molecular orbitals read from record     2100.2  Type=RKS/CANONICAL (state 1.1)
 Fock matrix read from record            2100.2  Type=RKS/TOTAL (state 1.1)
 Orbital energies read from record       2100.2  Type=RKS/CANONICAL (state 1.1)
 Density matrix read from record         2100.2  Type=RKS/CHARGE (state 1.1)

 Number of core orbitals:           5 (   5 )
 Number of closed-shell orbitals:  16 (  16 )

 Basis set MINAO-AUTO-PP generated.      Number of basis functions:   35 

 Polarized AO type:                A = (O Ot + (1-O)(1-Ot)) P12
 Orthogonalization method:         Symmetric (Loewdin)
 Localization functional:          L = sum[A,i] <i|n_A|i>^4 -> max

 Localization group 1:  21 orbitals, occupancy  2.000
 Iterative localization: IB/PM,    7 iter; Final gradient 0.24E-08

 Bond order analysis:       [THRPRINT= 0.020]

   CEN ATOM   CEN ATOM     WIBERG.BO      RENORM.BO
     1   C  -   2   C       0.992009       0.986793
     1   C  -   5   H       0.967889       0.989778
     1   C  -   6   H       0.964332       0.986445
     1   C  -   7   H       0.964332       0.986445

     2   C  -   3   O       0.998300       0.979398
     2   C  -   1   C       0.992009       0.986793
     2   C  -   8   C       0.986606       0.960204
     2   C  -   9   C       0.986606       0.960204

     3   O  -   2   C       0.998300       0.979398
     3   O  -   4   H       0.924215       0.982243
     3   O  -   9   C       0.029041       0.014983
     3   O  -   8   C       0.029041       0.014983

     4   H  -   3   O       0.924215       0.982243

     5   H  -   1   C       0.967889       0.989778

     6   H  -   1   C       0.964332       0.986445

     7   H  -   1   C       0.964332       0.986445

     8   C  -   2   C       0.986606       0.960204
     8   C  -  14   H       0.967086       0.985851
     8   C  -  12   H       0.965226       0.986748
     8   C  -  10   H       0.965048       0.986069
     8   C  -   3   O       0.029041       0.014983

     9   C  -   2   C       0.986606       0.960204
     9   C  -  15   H       0.967086       0.985851
     9   C  -  13   H       0.965226       0.986748
     9   C  -  11   H       0.965048       0.986069
     9   C  -   3   O       0.029041       0.014983

    10   H  -   8   C       0.965048       0.986069

    11   H  -   9   C       0.965048       0.986069

    12   H  -   8   C       0.965226       0.986748

    13   H  -   9   C       0.965226       0.986748

    14   H  -   8   C       0.967086       0.985851

    15   H  -   9   C       0.967086       0.985851


 Valency analysis:

   CEN ATOM   TOT.VALENCE
     1   C       3.939059
     2   C       3.971376
     3   O       2.032882
     4   H       0.941388
     5   H       0.983504
     6   H       0.982010
     7   H       0.982010
     8   C       3.941336
     9   C       3.941336
    10   H       0.982597
    11   H       0.982597
    12   H       0.982999
    13   H       0.982999
    14   H       0.984820
    15   H       0.984820

 Total charge composition:

   CEN ATOM         s          p       ELECTRONS ->P.CHARGE
     1   C       3.01074    3.37545      6.38619   -0.38619
     2   C       2.95093    2.91668      5.86761    0.13239
     3   O       3.69228    4.66239      8.35467   -0.35467
     4   H       0.75790                 0.75790    0.24210
     5   H       0.87156                 0.87156    0.12844
     6   H       0.86587                 0.86587    0.13413
     7   H       0.86587                 0.86587    0.13413
     8   C       3.01594    3.38473      6.40067   -0.40067
     9   C       3.01594    3.38473      6.40067   -0.40067
    10   H       0.86808                 0.86808    0.13192
    11   H       0.86808                 0.86808    0.13192
    12   H       0.86961                 0.86961    0.13039
    13   H       0.86961                 0.86961    0.13039
    14   H       0.87679                 0.87679    0.12321
    15   H       0.87679                 0.87679    0.12321

 Total charge composition, AO contributions:

   CEN ATOM SHL      SPHERICAL COMPONENTS
     1   C  1s       1.99164
     1   C  2s       1.01910
     1   C  2p       1.04761    1.15999    1.16786

     2   C  1s       1.99311
     2   C  2s       0.95782
     2   C  2p       1.02633    0.86707    1.02329

     3   O  1s       1.99730
     3   O  2s       1.69498
     3   O  2p       1.35886    1.35129    1.95224

     4   H  1s       0.75790

     5   H  1s       0.87156

     6   H  1s       0.86587

     7   H  1s       0.86587

     8   C  1s       1.99175
     8   C  2s       1.02419
     8   C  2p       1.14386    1.14421    1.09666

     9   C  1s       1.99175
     9   C  2s       1.02419
     9   C  2p       1.14386    1.14421    1.09666

    10   H  1s       0.86808

    11   H  1s       0.86808

    12   H  1s       0.86961

    13   H  1s       0.86961

    14   H  1s       0.87679

    15   H  1s       0.87679

 Summary of localized orbital composition:   [THRPRINT= 0.020]

   ORB  GRP  ORB.ENERGY      CENTERS/CHARGES
     1   1   -18.472041      O  3   2.000
     2   1    -9.835382      C  2   2.000
     3   1    -9.750442      C  8   2.000
     4   1    -9.750442      C  9   2.000
     5   1    -9.749692      C  1   2.000
     6   1    -0.620395      O  3   1.240   H  4   0.750
     7   1    -0.575214      O  3   1.171   C  2   0.811
     8   1    -0.493048      C  2   0.993   C  1   0.985   (other: 0.022)
     9   1    -0.492333      C  8   1.000   C  2   0.986
    10   1    -0.492333      C  9   1.000   C  2   0.986
    11   1    -0.468064      O  3   1.985
    12   1    -0.436492      C  9   1.120   H 15   0.870
    13   1    -0.436492      C  8   1.120   H 14   0.870
    14   1    -0.435229      C  9   1.128   H 13   0.862
    15   1    -0.435229      C  8   1.128   H 12   0.862
    16   1    -0.433562      C  1   1.125   H  5   0.865
    17   1    -0.431362      C  8   1.130   H 10   0.861
    18   1    -0.431362      C  9   1.130   H 11   0.861
    19   1    -0.426471      C  1   1.131   H  7   0.859
    20   1    -0.426471      C  1   1.131   H  6   0.859
    21   1    -0.089124      O  3   1.952   C  2   0.022   (other: 0.025)

 Localized orbitals saved to record      2100.2  (orbital set 2)


 **********************************************************************************************************************************
 DATASETS  * FILE   NREC   LENGTH (MB)   RECORD NAMES
              1      20       32.81       500      610      700      900      950      970     1000      129      960     1100   
                                          VAR    BASINP    GEOM    SYMINP    ZMAT    AOBASIS   BASIS     P2S    ABASIS      S 
                                         1400     1410     1200     1210     1080     1600     1650     1300     1700     1800   
                                           T        V       H0       H01     AOSYM     SMH    MOLCAS    ERIS     OPER     GRID   

              2       5        3.03       700     1000      520     1800     2100   
                                         GEOM     BASIS   MCVARS    GRID      RKS  

 PROGRAMS   *        TOTAL      IBBA        KS       INT
 CPU TIMES  *        10.60      0.04      9.94      0.47
 REAL TIME  *        18.18 SEC
 DISK USED  *        36.55 MB      
 **********************************************************************************************************************************
 Molecular orbitals read from record     2100.2  Type=RKS/LOCAL(IBO)  
 Occupation numbers read from record     2100.2  Type=RKS/LOCAL(IBO)  
 Orbital energies read from record       2100.2  Type=RKS/LOCAL(IBO)  
 Redundancy group numbers read from rec  2100.2  Type=RKS/LOCAL(IBO)  

 IBBA/STO-3G energy=      0.000000000000

        KS-SCF  
   -230.65327453
 **********************************************************************************************************************************
 Molpro calculation terminated
