
 Primary working directories    : /tmp/sb13343
 Secondary working directories  : /tmp/sb13343
 Wavefunction directory         : /panfs/panasas01/chem/sb13343/wfu/
 Main file repository           : /tmp/sb13343/

 SHA1      : b4a5b34a9e711420743f49e6833241d17c61fb3c
 NAME      : 2099.9.b4a5b34
 ARCHNAME  : linux/x86_64_openmp
 FC        : /cm/shared/languages/GCC-6.1/bin/gfortran
 BLASLIB   : -lblas
 id        : simonbennie

 Nodes     nprocs
 node32-028    1

 Using customized tuning parameters: mindgm=1; mindgv=20; mindgc=4; mindgr=1; noblas=0; minvec=7
 default implementation of scratch files=df  

 memory,500,m
 geomtyp=xyz
 nosym
 noorient
 geometry={
 C         -1.53233        0.02247        0.00000
 C         -0.00192        0.01421        0.00000
 O          0.37239        1.40356        0.00000
 H          1.34248        1.44036        0.00000
 H         -1.92991       -0.99819        0.00000
 H         -1.90797        0.54382       -0.88653
 H         -1.90797        0.54382        0.88653
 C          0.54303       -0.66466       -1.26580
 C          0.54303       -0.66466        1.26580
 H          0.17836       -0.14752       -2.15943
 H          0.17836       -0.14752        2.15943
 H          0.23752       -1.71600       -1.32280
 H          0.23752       -1.71600        1.32280
 H          1.64084       -0.63767       -1.28032
 H          1.64084       -0.63767        1.28032
 }
 basis={ default,svp }
 {ks,LSDAC,direct;wf,42,1,0}
 {ibba,bonds=1}

 Variables initialized (895), CPU time= 0.01 sec
 Commands  initialized (725), CPU time= 0.01 sec, 591 directives.
 Default parameters read. Elapsed time= 3.37 sec

 Checking input...
 Passed
1


                                         ***  PROGRAM SYSTEM MOLPRO  ***
                                       Copyright, TTI GmbH Stuttgart, 2015
                                    Version 2099.9 linked May 26 2017 16:03:21


 **********************************************************************************************************************************
 LABEL *                                                                                 
  64 bit serial version                                                                  DATE: 09-Jun-17          TIME: 03:37:17  
 **********************************************************************************************************************************

 SHA1:             b4a5b34a9e711420743f49e6833241d17c61fb3c
 **********************************************************************************************************************************
 SETTING GEOMTYP        =    XYZ

 Variable memory set to  500000000 words,  buffer space 

 ZSYMEL=NOSYM

 SETTING BASIS          =    SVP


 Recomputing integrals since basis changed


 Using spherical harmonics

 Library entry C      S def2-SVP             selected for orbital group  1
 Library entry C      P def2-SVP             selected for orbital group  1
 Library entry C      D def2-SVP             selected for orbital group  1
 Library entry O      S def2-SVP             selected for orbital group  2
 Library entry O      P def2-SVP             selected for orbital group  2
 Library entry O      D def2-SVP             selected for orbital group  2
 Library entry H      S def2-SVP             selected for orbital group  3
 Library entry H      P def2-SVP             selected for orbital group  3


 PROGRAM * SEWARD (Integral evaluation for generally contracted gaussian basis sets)     Author: Roland Lindh, 1990

 Geometry written to block  1 of record 700


 Point group  C1  



 ATOMIC COORDINATES

 NR  ATOM    CHARGE       X              Y              Z

   1  C       6.00   -2.895684032    0.042462146    0.000000000
   2  C       6.00   -0.003628274    0.026853008    0.000000000
   3  O       8.00    0.703715112    2.652343999    0.000000000
   4  H       1.00    2.536919528    2.721885921    0.000000000
   5  H       1.00   -3.647001345   -1.886305720    0.000000000
   6  H       1.00   -3.605540754    1.027670861   -1.675298901
   7  H       1.00   -3.605540754    1.027670861    1.675298901
   8  C       6.00    1.026177977   -1.256025366   -2.392015328
   9  C       6.00    1.026177977   -1.256025366    2.392015328
  10  H       1.00    0.337051552   -0.278772398   -4.080731285
  11  H       1.00    0.337051552   -0.278772398    4.080731285
  12  H       1.00    0.448847749   -3.242770030   -2.499729718
  13  H       1.00    0.448847749   -3.242770030    2.499729718
  14  H       1.00    3.100738214   -1.205021658   -2.419454152
  15  H       1.00    3.100738214   -1.205021658    2.419454152

 Bond lengths in Bohr (Angstrom)

 1-2  2.892097881  1-5  2.069933136  1-6  2.069096224  1-7  2.069096224  2-3  2.719106031
     ( 1.530432290)     ( 1.095361444)     ( 1.094918569)     ( 1.094918569)     ( 1.438888946)

  2- 8  2.903104402   2- 9  2.903104402   3- 4  1.834522965   8-10  2.069222119   8-12  2.071730422
       ( 1.536256691)       ( 1.536256691)       ( 0.970787746)       ( 1.094985190)       ( 1.096312526)

  8-14  2.075368508   9-11  2.069222119   9-13  2.071730422   9-15  2.075368508
       ( 1.098237719)       ( 1.094985190)       ( 1.096312526)       ( 1.098237719)

 Bond angles

  1-2-3  104.76902697   1-2-8  110.92255387   1-2-9  110.92255387   2-1-5  110.97328220

  2- 1- 6  110.22090701   2- 1- 7  110.22090701   2- 3- 4  107.25071562   2- 8-10  110.21836376

  2- 8-12  111.57747468   2- 8-14  110.77023896   2- 9-11  110.21836376   2- 9-13  111.57747468

  2- 9-15  110.77023896   3- 2- 8  109.53648747   3- 2- 9  109.53648747   5- 1- 6  108.61190457

  5- 1- 7  108.61190457   6- 1- 7  108.12870271   8- 2- 9  110.96453384  10- 8-12  108.52192632

 10- 8-14  108.08997829  11- 9-13  108.52192632  11- 9-15  108.08997829  12- 8-14  107.54424578

 13- 9-15  107.54424578

 NUCLEAR CHARGE:                   42
 NUMBER OF PRIMITIVE AOS:         195
 NUMBER OF SYMMETRY AOS:          190
 NUMBER OF CONTRACTIONS:          120   ( 120A   )
 NUMBER OF CORE ORBITALS:           5   (   5A   )
 NUMBER OF VALENCE ORBITALS:       30   (  30A   )


 NUCLEAR REPULSION ENERGY  198.77359127


 Eigenvalues of metric

         1 0.176E-02 0.546E-02 0.548E-02 0.123E-01 0.248E-01 0.256E-01 0.256E-01 0.275E-01


 Contracted 2-electron integrals neglected if value below      1.0D-11
 AO integral compression algorithm  1   Integral accuracy      1.0D-11

     101.974 MB (compressed) written to integral file ( 44.9%)


 NUMBER OF SORTED TWO-ELECTRON INTEGRALS:   26357430.     BUFFER LENGTH:  32768
 NUMBER OF SEGMENTS:   2  SEGMENT LENGTH:   15997996      RECORD LENGTH: 524288

 Memory used in sort:      16.56 MW

 SORT1 READ    28411733. AND WROTE    24096425. INTEGRALS IN     70 RECORDS. CPU TIME:     0.35 SEC, REAL TIME:     0.68 SEC
 SORT2 READ    24096425. AND WROTE    26357430. INTEGRALS IN    389 RECORDS. CPU TIME:     0.62 SEC, REAL TIME:     0.79 SEC

 FILE SIZES:   FILE 1:   132.7 MBYTE,  FILE 4:   293.6 MBYTE,   TOTAL:    426.4 MBYTE

 OPERATOR DM      FOR CENTER  0  COORDINATES:    0.000000    0.000000    0.000000


 **********************************************************************************************************************************
 DATASETS  * FILE   NREC   LENGTH (MB)   RECORD NAMES
              1      19      120.44       500      610      700      900      950      970     1000      129      960     1100   
                                          VAR    BASINP    GEOM    SYMINP    ZMAT    AOBASIS   BASIS     P2S    ABASIS      S 
                                         1400     1410     1200     1210     1080     1600     1650     1300     1700   
                                           T        V       H0       H01     AOSYM     SMH    MOLCAS    ERIS     OPER   

 PROGRAMS   *        TOTAL       INT
 CPU TIMES  *         4.02      3.87
 REAL TIME  *         8.42 SEC
 DISK USED  *       426.89 MB      
 **********************************************************************************************************************************

 Density functional group LSDAC=PW92C
 Functional: PW92C(Automatically generated (new) PW92C)                        Gradient terms: 0
 Use grid at  1800.2

 Functional: PW92C                     Factor:  1.0000

 Generated new metagrid on record  1800.2 with target accuracy 1.0D-06 and 53396 points in CPU time    1.5
 Computed new grid on record 1800.1 in CPU time    1.7
   53819 words reserved for DFT integration

 PROGRAM * RKS-SCF (Restricted closed shell Kohn-Sham)     Authors: W. Meyer, H.-J. Werner, P.J. Knowles, 1993

 NUMBER OF ELECTRONS:      21+   21-    SPACE SYMMETRY=1    SPIN SYMMETRY: Singlet 
 CONVERGENCE THRESHOLDS:    1.00E-05 (Density)    1.00E-06 (Energy)
 MAX. NUMBER OF ITERATIONS:       60
 INTERPOLATION TYPE:            DIIS
 INTERPOLATION STEPS:              2 (START)      1 (STEP)
 LEVEL SHIFTS:                  0.00 (CLOSED)  0.00 (OPEN) 



 Use fine grid record 1800.2 for energy threshold  1.0D-06
 Orbital guess generated from atomic densities. Full valence occupancy:   21

 Molecular orbital dump at record        2100.2

 Initial occupancy:  21

 ITERATION    DDIFF          GRAD             ENERGY        2-EL.EN.            DIPOLE MOMENTS         DIIS   ORB.
    1      0.000D+00      0.000D+00      -200.82117706    559.073206    2.19433    8.00389   -0.00000    0    start
    2      0.000D+00      0.279D-01      -191.40170341    676.861772   -7.00547  -18.12129    0.00000    1    diag
    3      0.267D+00      0.734D-01      -201.60269449    627.453125    0.70570   -2.97503   -0.00000    2    diag
    4      0.660D-01      0.286D-01      -202.52144734    603.131986   -0.83058   -3.28198    0.00000    3    diag
    5      0.219D-01      0.147D-01      -202.77925071    608.016596    0.20624   -1.17956   -0.00000    4    diag
    6      0.153D-01      0.956D-02      -202.91194291    593.969929    0.58604   -0.15970    0.00000    5    diag
    7      0.201D-01      0.476D-02      -202.94389608    596.636226    0.43262    0.22308    0.00000    6    diag
    8      0.760D-02      0.150D-02      -202.94794767    595.022448    0.24261    0.08363    0.00000    7    diag
    9      0.284D-02      0.433D-03      -202.94833478    595.231182    0.38663    0.17914    0.00000    8    diag
   10      0.107D-02      0.940D-04      -202.94835726    595.259784    0.35833    0.15030   -0.00000    9    orth
   11      0.251D-03      0.178D-04      -202.94835781    595.260447    0.35701    0.15226    0.00000    9    diag
   12      0.395D-04      0.744D-05      -202.94835791    595.258507    0.35794    0.15232    0.00000    9    diag
   13      0.136D-04      0.262D-05      -202.94835792    595.257677    0.35778    0.15232    0.00000    9    diag
   14      0.432D-05      0.291D-06      -202.94835792    595.257551    0.35777    0.15249    0.00000    0    orth

 Final occupancy:  21

 !RKS STATE 1.1 Energy               -202.948357920318
 Nuclear energy                       198.77359127
 One-electron energy                 -696.78096902
 Two-electron energy                  297.62877562
 Density functional                    -2.56975580     PW92C=-2.56975580
 Virial quotient                       -0.93213748
 !RKS STATE 1.1 Dipole moment           0.35777295     0.15248958     0.00000000
 Dipole moment /Debye                   0.90930857     0.38756446     0.00000000

 Orbital energies:

         1.1          2.1          3.1          4.1          5.1          6.1          7.1          8.1          9.1         10.1
    -16.629446    -8.271059    -8.245551    -8.245123    -8.243295    -0.580714    -0.404074    -0.322777    -0.319937    -0.216091

        11.1         12.1         13.1         14.1         15.1         16.1         17.1         18.1         19.1         20.1
     -0.166808    -0.141777    -0.139699    -0.095155    -0.085440    -0.064236    -0.043955    -0.037736    -0.034775     0.013040

        21.1         22.1         23.1
      0.068495     0.161233     0.216679

 HOMO     21.1     0.068495 =       1.8639eV
 LUMO     22.1     0.161233 =       4.3874eV
 LUMO-HOMO         0.092738 =       2.5235eV


 **********************************************************************************************************************************
 DATASETS  * FILE   NREC   LENGTH (MB)   RECORD NAMES
              1      20      122.15       500      610      700      900      950      970     1000      129      960     1100   
                                          VAR    BASINP    GEOM    SYMINP    ZMAT    AOBASIS   BASIS     P2S    ABASIS      S 
                                         1400     1410     1200     1210     1080     1600     1650     1300     1700     1800   
                                           T        V       H0       H01     AOSYM     SMH    MOLCAS    ERIS     OPER     GRID   

              2       5        3.30       700     1000      520     1800     2100   
                                         GEOM     BASIS   MCVARS    GRID      RKS  

 PROGRAMS   *        TOTAL        KS       INT
 CPU TIMES  *        15.17     11.16      3.87
 REAL TIME  *        20.20 SEC
 DISK USED  *       426.89 MB      
 **********************************************************************************************************************************


 PROGRAM * Intrinsic Basis Bonding Analysis (IBBA)          Author: G. Knizia

 Molecular orbitals read from record     2100.2  Type=RKS/CANONICAL (state 1.1)
 Fock matrix read from record            2100.2  Type=RKS/TOTAL (state 1.1)
 Orbital energies read from record       2100.2  Type=RKS/CANONICAL (state 1.1)
 Density matrix read from record         2100.2  Type=RKS/CHARGE (state 1.1)

 Number of core orbitals:           5 (   5 )
 Number of closed-shell orbitals:  16 (  16 )

 Basis set MINAO-AUTO-PP generated.      Number of basis functions:   35 

 Polarized AO type:                A = (O Ot + (1-O)(1-Ot)) P12
 Orthogonalization method:         Symmetric (Loewdin)
 Localization functional:          L = sum[A,i] <i|n_A|i>^4 -> max

 Localization group 1:  21 orbitals, occupancy  2.000
 Iterative localization: IB/PM,    7 iter; Final gradient 0.91E-08

 Bond order analysis:       [THRPRINT= 0.020]

   CEN ATOM   CEN ATOM     WIBERG.BO      RENORM.BO
     1   C  -   2   C       0.976216       0.993184
     1   C  -   5   H       0.957166       0.968113
     1   C  -   6   H       0.949870       0.952406
     1   C  -   7   H       0.949870       0.952406
     1   C  -   3   O       0.036212       0.020599
     1   C  -   4   H       0.023869       0.028256
     1   C  -  14   H       0.020313       0.020951
     1   C  -  15   H       0.020313       0.020951

     2   C  -   3   O       0.987287       0.955589
     2   C  -   8   C       0.980899       0.969857
     2   C  -   9   C       0.980899       0.969857
     2   C  -   1   C       0.976216       0.993184

     3   O  -   2   C       0.987287       0.955589
     3   O  -   4   H       0.928115       0.938269
     3   O  -   9   C       0.055341       0.030635
     3   O  -   8   C       0.055341       0.030635
     3   O  -   1   C       0.036212       0.020599
     3   O  -  12   H       0.035121       0.024693
     3   O  -  13   H       0.035121       0.024693
     3   O  -   5   H       0.021578       0.016448

     4   H  -   3   O       0.928115       0.938269
     4   H  -   1   C       0.023869       0.028256

     5   H  -   1   C       0.957166       0.968113
     5   H  -   3   O       0.021578       0.016448

     6   H  -   1   C       0.949870       0.952406
     6   H  -   9   C       0.023487       0.023802

     7   H  -   1   C       0.949870       0.952406
     7   H  -   8   C       0.023487       0.023802

     8   C  -   2   C       0.980899       0.969857
     8   C  -  10   H       0.951136       0.952115
     8   C  -  14   H       0.950931       0.959583
     8   C  -  12   H       0.948301       0.949874
     8   C  -   3   O       0.055341       0.030635
     8   C  -   7   H       0.023487       0.023802
     8   C  -  11   H       0.022979       0.023257

     9   C  -   2   C       0.980899       0.969857
     9   C  -  11   H       0.951136       0.952115
     9   C  -  15   H       0.950931       0.959583
     9   C  -  13   H       0.948301       0.949874
     9   C  -   3   O       0.055341       0.030635
     9   C  -   6   H       0.023487       0.023802
     9   C  -  10   H       0.022979       0.023257

    10   H  -   8   C       0.951136       0.952115
    10   H  -   9   C       0.022979       0.023257

    11   H  -   9   C       0.951136       0.952115
    11   H  -   8   C       0.022979       0.023257

    12   H  -   8   C       0.948301       0.949874
    12   H  -   3   O       0.035121       0.024693

    13   H  -   9   C       0.948301       0.949874
    13   H  -   3   O       0.035121       0.024693

    14   H  -   8   C       0.950931       0.959583
    14   H  -   1   C       0.020313       0.020951

    15   H  -   9   C       0.950931       0.959583
    15   H  -   1   C       0.020313       0.020951


 Valency analysis:

   CEN ATOM   TOT.VALENCE
     1   C       3.965636
     2   C       3.948818
     3   O       2.183794
     4   H       0.973841
     5   H       0.998161
     6   H       0.998251
     7   H       0.998251
     8   C       3.966880
     9   C       3.966880
    10   H       0.998263
    11   H       0.998263
    12   H       0.998322
    13   H       0.998322
    14   H       0.998946
    15   H       0.998946

 Total charge composition:

   CEN ATOM         s          p       ELECTRONS ->P.CHARGE
     1   C       2.90482    3.25497      6.15979   -0.15979
     2   C       2.83621    2.90838      5.74459    0.25541
     3   O       3.54039    4.71294      8.25333   -0.25333
     4   H       0.83826                 0.83826    0.16174
     5   H       0.95712                 0.95712    0.04288
     6   H       0.95817                 0.95817    0.04183
     7   H       0.95817                 0.95817    0.04183
     8   C       2.92139    3.25900      6.18039   -0.18039
     9   C       2.92139    3.25900      6.18039   -0.18039
    10   H       0.95832                 0.95832    0.04168
    11   H       0.95832                 0.95832    0.04168
    12   H       0.95903                 0.95903    0.04097
    13   H       0.95903                 0.95903    0.04097
    14   H       0.96753                 0.96753    0.03247
    15   H       0.96753                 0.96753    0.03247

 Total charge composition, AO contributions:

   CEN ATOM SHL      SPHERICAL COMPONENTS
     1   C  1s       1.99771
     1   C  2s       0.90712
     1   C  2p       1.04038    1.10269    1.11190

     2   C  1s       1.99833
     2   C  2s       0.83788
     2   C  2p       1.01941    0.86816    1.02080

     3   O  1s       1.99892
     3   O  2s       1.54147
     3   O  2p       1.35130    1.45764    1.90400

     4   H  1s       0.83826

     5   H  1s       0.95712

     6   H  1s       0.95817

     7   H  1s       0.95817

     8   C  1s       1.99775
     8   C  2s       0.92365
     8   C  2p       1.08829    1.09814    1.07256

     9   C  1s       1.99775
     9   C  2s       0.92365
     9   C  2p       1.08829    1.09814    1.07256

    10   H  1s       0.95832

    11   H  1s       0.95832

    12   H  1s       0.95903

    13   H  1s       0.95903

    14   H  1s       0.96753

    15   H  1s       0.96753

 Summary of localized orbital composition:   [THRPRINT= 0.020]

   ORB  GRP  ORB.ENERGY      CENTERS/CHARGES
     1   1   -16.540728      O  3   2.000
     2   1    -8.202895      C  2   2.000
     3   1    -8.165300      C  8   2.000
     4   1    -8.165300      C  9   2.000
     5   1    -8.163109      C  1   2.000
     6   1    -0.376234      O  3   1.201   C  2   0.772   (other: 0.026)
     7   1    -0.351043      O  3   1.174   H  4   0.811
     8   1    -0.238012      C  1   1.001   C  2   0.951   (other: 0.048)
     9   1    -0.235093      C  9   1.025   C  2   0.943   (other: 0.032)
    10   1    -0.235093      C  8   1.025   C  2   0.943   (other: 0.032)
    11   1    -0.166510      C  8   1.023   H 14   0.954   (other: 0.023)
    12   1    -0.166510      C  9   1.023   H 15   0.954   (other: 0.023)
    13   1    -0.163054      C  9   1.040   H 13   0.939   (other: 0.020)
    14   1    -0.163054      C  8   1.040   H 12   0.939   (other: 0.020)
    15   1    -0.161608      C  1   1.036   H  5   0.943   (other: 0.020)
    16   1    -0.160577      C  9   1.041   H 11   0.941
    17   1    -0.160577      C  8   1.041   H 10   0.941
    18   1    -0.158606      C  1   1.040   H  7   0.941
    19   1    -0.158606      C  1   1.040   H  6   0.941
    20   1    -0.114553      O  3   1.960   (other: 0.040)
    21   1     0.040346      O  3   1.904   C  2   0.029   C  9   0.021   C  8   0.021   (other: 0.026)

 Localized orbitals saved to record      2100.2  (orbital set 2)


 **********************************************************************************************************************************
 DATASETS  * FILE   NREC   LENGTH (MB)   RECORD NAMES
              1      20      122.15       500      610      700      900      950      970     1000      129      960     1100   
                                          VAR    BASINP    GEOM    SYMINP    ZMAT    AOBASIS   BASIS     P2S    ABASIS      S 
                                         1400     1410     1200     1210     1080     1600     1650     1300     1700     1800   
                                           T        V       H0       H01     AOSYM     SMH    MOLCAS    ERIS     OPER     GRID   

              2       5        3.42       700     1000      520     1800     2100   
                                         GEOM     BASIS   MCVARS    GRID      RKS  

 PROGRAMS   *        TOTAL      IBBA        KS       INT
 CPU TIMES  *        15.21      0.04     11.16      3.87
 REAL TIME  *        20.33 SEC
 DISK USED  *       426.89 MB      
 **********************************************************************************************************************************
 Molecular orbitals read from record     2100.2  Type=RKS/LOCAL(IBO)  
 Occupation numbers read from record     2100.2  Type=RKS/LOCAL(IBO)  
 Orbital energies read from record       2100.2  Type=RKS/LOCAL(IBO)  
 Redundancy group numbers read from rec  2100.2  Type=RKS/LOCAL(IBO)  

 IBBA/SVP energy=      0.000000000000

        KS-SCF  
   -202.94835792
 **********************************************************************************************************************************
 Molpro calculation terminated
