
 Primary working directories    : /tmp/sb13343
 Secondary working directories  : /tmp/sb13343
 Wavefunction directory         : /panfs/panasas01/chem/sb13343/wfu/
 Main file repository           : /tmp/sb13343/

 SHA1      : b4a5b34a9e711420743f49e6833241d17c61fb3c
 NAME      : 2099.9.b4a5b34
 ARCHNAME  : linux/x86_64_openmp
 FC        : /cm/shared/languages/GCC-6.1/bin/gfortran
 BLASLIB   : -lblas
 id        : simonbennie

 Nodes     nprocs
 node32-027    1

 Using customized tuning parameters: mindgm=1; mindgv=20; mindgc=4; mindgr=1; noblas=0; minvec=7
 default implementation of scratch files=df  

 memory,500,m
 geomtyp=xyz
 nosym
 noorient
 geometry={
 C          0.00000        0.00000        0.00000
 C          1.54025       -0.00009       -0.00004
 C         -0.51333        1.45219       -0.00005
 C         -0.51349       -0.72611       -1.25756
 C         -0.51342       -0.72599        1.25765
 H         -1.60999        1.48489       -0.00002
 H         -1.61015       -0.74237       -1.28580
 H         -1.61008       -0.74225        1.28596
 H         -0.16312        1.99638        0.88591
 H         -0.16316        1.99630       -0.88608
 H         -0.16333       -0.23096       -2.17186
 H         -0.16339       -1.76551       -1.28580
 H         -0.16332       -1.76539        1.28596
 H         -0.16320       -0.23077        2.17189
 H          1.93652       -1.02316       -0.00001
 H          1.93658        0.51138       -0.88607
 H          1.93663        0.51146        0.88592
 }
 basis={ default,sto-3g }
 {uks,MM06-2X,direct;wf,42,1,0}
 {ibba,bonds=1}

 Variables initialized (895), CPU time= 0.00 sec
 Commands  initialized (725), CPU time= 0.01 sec, 591 directives.
 Default parameters read. Elapsed time= 0.08 sec

 Checking input...
 Passed
1


                                         ***  PROGRAM SYSTEM MOLPRO  ***
                                       Copyright, TTI GmbH Stuttgart, 2015
                                    Version 2099.9 linked May 26 2017 16:03:21


 **********************************************************************************************************************************
 LABEL *                                                                                 
  64 bit serial version                                                                  DATE: 08-Jun-17          TIME: 22:06:20  
 **********************************************************************************************************************************

 SHA1:             b4a5b34a9e711420743f49e6833241d17c61fb3c
 **********************************************************************************************************************************
 SETTING GEOMTYP        =    XYZ

 Variable memory set to  500000000 words,  buffer space 

 ZSYMEL=NOSYM

 SETTING BASIS          =    STO-3G


 Recomputing integrals since basis changed


 Using spherical harmonics

 Library entry C      S STO-3G               selected for orbital group  1
 Library entry C      P STO-3G               selected for orbital group  1
 Library entry H      S STO-3G               selected for orbital group  2


 PROGRAM * SEWARD (Integral evaluation for generally contracted gaussian basis sets)     Author: Roland Lindh, 1990

 Geometry written to block  1 of record 700


 Point group  C1  



 ATOMIC COORDINATES

 NR  ATOM    CHARGE       X              Y              Z

   1  C       6.00    0.000000000    0.000000000    0.000000000
   2  C       6.00    2.910650663   -0.000170075   -0.000075589
   3  C       6.00   -0.970053112    2.744241381   -0.000094486
   4  C       6.00   -0.970355468   -1.372149036   -2.376443985
   5  C       6.00   -0.970223187   -1.371922269    2.376614061
   6  H       1.00   -3.042440163    2.806035425   -0.000037795
   7  H       1.00   -3.042742519   -1.402875983   -2.429809851
   8  H       1.00   -3.042610239   -1.402649216    2.430112207
   9  H       1.00   -0.308252125    3.772611441    1.674127271
  10  H       1.00   -0.308327714    3.772460262   -1.674448524
  11  H       1.00   -0.308648968   -0.436451146   -4.104220581
  12  H       1.00   -0.308762351   -3.336330370   -2.429809851
  13  H       1.00   -0.308630071   -3.336103603    2.430112207
  14  H       1.00   -0.308403304   -0.436092098    4.104277273
  15  H       1.00    3.659492435   -1.933492182   -0.000018897
  16  H       1.00    3.659605818    0.966368146   -1.674429627
  17  H       1.00    3.659700305    0.966519324    1.674146168

 Bond lengths in Bohr (Angstrom)

  1- 2  2.910650669   1- 3  2.910646630   1- 4  2.910647475   1- 5  2.910635350   2-15  2.073282028
       ( 1.540250003)       ( 1.540247866)       ( 1.540248313)       ( 1.540241896)       ( 1.097133601)

  2-16  2.073304464   2-17  2.073302258   3- 6  2.073308129   3- 9  2.073293037   3-10  2.073300754
       ( 1.097145474)       ( 1.097144306)       ( 1.097147413)       ( 1.097139427)       ( 1.097143510)

  4- 7  2.073301752   4-11  2.073306055   4-12  2.073297296   5- 8  2.073305161   5-13  2.073300706
       ( 1.097144038)       ( 1.097146316)       ( 1.097141681)       ( 1.097145842)       ( 1.097143485)

  5-14  2.073307464
       ( 1.097147061)

 Bond angles

  1- 2-15  111.17643746   1- 2-16  111.17582452   1- 2-17  111.17607088   1- 3- 6  111.17575783

  1- 3- 9  111.17644989   1- 3-10  111.17611121   1- 4- 7  111.17614317   1- 4-11  111.17631877

  1- 4-12  111.17675056   1- 5- 8  111.17663037   1- 5-13  111.17645588   1- 5-14  111.17672823

  2-1-3  109.47117711   2-1-4  109.47117360   2-1-5  109.47107360   3-1-4  109.47144919

  3- 1- 5  109.47121161   4- 1- 5  109.47123870   6- 3- 9  107.71338639   6- 3-10  107.71391335

  7- 4-11  107.71323113   7- 4-12  107.71354587   8- 5-13  107.71328790   8- 5-14  107.71342022

  9- 3-10  107.71420977  11- 4-12  107.71378459  13- 5-14  107.71321488  15- 2-16  107.71365571

 15- 2-17  107.71411853  16- 2-17  107.71372051

 NUCLEAR CHARGE:                   42
 NUMBER OF PRIMITIVE AOS:         111
 NUMBER OF SYMMETRY AOS:          111
 NUMBER OF CONTRACTIONS:           37   (  37A   )
 NUMBER OF CORE ORBITALS:           5   (   5A   )
 NUMBER OF VALENCE ORBITALS:       32   (  32A   )


 NUCLEAR REPULSION ENERGY  197.66618863


 Eigenvalues of metric

         1 0.202E+00 0.229E+00 0.229E+00 0.229E+00 0.312E+00 0.362E+00 0.362E+00 0.362E+00


 Contracted 2-electron integrals neglected if value below      1.0D-11
 AO integral compression algorithm  1   Integral accuracy      1.0D-11

     2.097 MB (compressed) written to integral file ( 90.5%)


 NUMBER OF SORTED TWO-ELECTRON INTEGRALS:     247456.     BUFFER LENGTH:  32768
 NUMBER OF SEGMENTS:   1  SEGMENT LENGTH:     247456      RECORD LENGTH: 524288

 Memory used in sort:       0.80 MW

 SORT1 READ      274857. AND WROTE      242287. INTEGRALS IN      1 RECORDS. CPU TIME:     0.00 SEC, REAL TIME:     0.01 SEC
 SORT2 READ      242287. AND WROTE      247456. INTEGRALS IN      8 RECORDS. CPU TIME:     0.02 SEC, REAL TIME:     0.03 SEC

 FILE SIZES:   FILE 1:    32.4 MBYTE,  FILE 4:     4.2 MBYTE,   TOTAL:     36.6 MBYTE

 OPERATOR DM      FOR CENTER  0  COORDINATES:    0.000000    0.000000    0.000000


 **********************************************************************************************************************************
 DATASETS  * FILE   NREC   LENGTH (MB)   RECORD NAMES
              1      19       31.36       500      610      700      900      950      970     1000      129      960     1100   
                                          VAR    BASINP    GEOM    SYMINP    ZMAT    AOBASIS   BASIS     P2S    ABASIS      S 
                                         1400     1410     1200     1210     1080     1600     1650     1300     1700   
                                           T        V       H0       H01     AOSYM     SMH    MOLCAS    ERIS     OPER   

 PROGRAMS   *        TOTAL       INT
 CPU TIMES  *         0.62      0.47
 REAL TIME  *         0.90 SEC
 DISK USED  *        37.15 MB      
 **********************************************************************************************************************************

 Density functional group MM06-2X=M062XX+M062XC
 Functional: M062XX(Automatically generated (new) M062XX)                      Gradient terms: 2
 Functional: M062XC(Automatically generated (new) M062XC)                      Gradient terms: 2
 Use grid at  1800.2


 Exact exchange will be calculated, factor:  0.5400

 Functional: M062XX                    Factor:  0.4600
 Functional: M062XC                    Factor:  1.0000

 Generated new metagrid on record  1800.2 with target accuracy 1.0D-06 and 57016 points in CPU time    1.7
 Computed new grid on record 1800.1 in CPU time    1.9
   62217 words reserved for DFT integration

 PROGRAM * UKS-SCF (Unrestricted Kohn-Sham)     Authors: W. Meyer, H.-J. Werner, P.J. Knowles, 1993

 NUMBER OF ELECTRONS:      21+   21-    SPACE SYMMETRY=1    SPIN SYMMETRY: Singlet 
 CONVERGENCE THRESHOLDS:    1.00E-05 (Density)    1.00E-06 (Energy)
 MAX. NUMBER OF ITERATIONS:       60
 INTERPOLATION TYPE:            DIIS
 INTERPOLATION STEPS:              2 (START)      1 (STEP)
 LEVEL SHIFTS:                 -0.20 (ALPHA)  -0.20 (BETA) 



 Use fine grid record 1800.2 for energy threshold  1.0D-06
 Orbital guess generated from atomic densities. Full valence occupancy:   21

 Molecular orbital dump at record        2200.2

 Initial alpha occupation  21
 Initial beta  occupation  21

 ITERATION    DDIFF          GRAD             ENERGY        2-EL.EN.            DIPOLE MOMENTS         DIIS
    1      0.000D+00      0.000D+00      -187.69694138    563.620174   -0.00000    0.00005   -0.00000    0
    2      0.420D-01      0.167D-01      -187.94319572    549.741054   -0.00135   -0.00124   -0.00000    1
    3      0.295D-02      0.149D-02      -187.94486478    550.482578   -0.00073   -0.00089   -0.00000    2
    4      0.939D-03      0.347D-03      -187.94502559    550.469866   -0.00050   -0.00074   -0.00000    3
    5      0.201D-03      0.614D-04      -187.94503111    550.466827   -0.00046   -0.00071   -0.00000    4
    6      0.225D-04      0.812D-05      -187.94503120    550.466703   -0.00046   -0.00070   -0.00000    4
    7      0.349D-05      0.112D-05      -187.94503120    550.467038   -0.00046   -0.00070   -0.00000    5
    8      0.483D-06      0.196D-06      -187.94503120    550.467047   -0.00046   -0.00070   -0.00000    5

 Final alpha occupancy:  21
 Final beta  occupancy:  21

 !UKS STATE 1.1 Energy               -187.945031203765
 Nuclear energy                       197.66618863
 One-electron energy                 -653.04183099
 Two-electron energy                  275.23352346
 Density functional                    -7.80291231     M062XX=-13.80685384 M062XC= -1.45175954
 Virial quotient                       -0.98200075
 !UKS STATE 1.1 Dipole moment          -0.00046291    -0.00070202    -0.00000076
 Dipole moment /Debye                  -0.00117653    -0.00178423    -0.00000193

 Orbital energies for positive spin:

         1.1          2.1          3.1          4.1          5.1          6.1          7.1          8.1          9.1         10.1
     -9.916407    -9.895934    -9.895837    -9.895799    -9.895490    -0.777870    -0.630283    -0.630216    -0.630215    -0.466617

        11.1         12.1         13.1         14.1         15.1         16.1         17.1         18.1         19.1         20.1
     -0.379315    -0.379234    -0.379175    -0.325441    -0.325312    -0.284514    -0.284372    -0.284331    -0.226091    -0.225996

        21.1         22.1         23.1
     -0.225929     0.556925     0.557245

 Orbital energies for negative spin:

         1.1          2.1          3.1          4.1          5.1          6.1          7.1          8.1          9.1         10.1
     -9.916407    -9.895934    -9.895837    -9.895799    -9.895490    -0.777870    -0.630283    -0.630216    -0.630215    -0.466617

        11.1         12.1         13.1         14.1         15.1         16.1         17.1         18.1         19.1         20.1
     -0.379315    -0.379234    -0.379175    -0.325441    -0.325312    -0.284514    -0.284372    -0.284331    -0.226091    -0.225996

        21.1         22.1         23.1
     -0.225929     0.556925     0.557245

 HOMO     21.1    -0.225929 =      -6.1479eV
 LUMO     22.1     0.556925 =      15.1547eV
 LUMO-HOMO         0.782854 =      21.3025eV

 EXPECTATION VALUE OF S**2:             0.00000000

 Natural orbitals saved to record    2200.2 (Orbital set 3)

 Orbital spaces for UNO-CAS (Min. occupation: 0.020  Max. occupation: 1.980):

 Closed:       21
 Active:        0


 **********************************************************************************************************************************
 DATASETS  * FILE   NREC   LENGTH (MB)   RECORD NAMES
              1      20       33.19       500      610      700      900      950      970     1000      129      960     1100   
                                          VAR    BASINP    GEOM    SYMINP    ZMAT    AOBASIS   BASIS     P2S    ABASIS      S 
                                         1400     1410     1200     1210     1080     1600     1650     1300     1700     1800   
                                           T        V       H0       H01     AOSYM     SMH    MOLCAS    ERIS     OPER     GRID   

              2       5        3.10       700     1000      520     1800     2200   
                                         GEOM     BASIS   MCVARS    GRID      UKS  

 PROGRAMS   *        TOTAL       UKS       INT
 CPU TIMES  *        15.55     14.93      0.47
 REAL TIME  *        16.58 SEC
 DISK USED  *        37.15 MB      
 **********************************************************************************************************************************


 PROGRAM * Intrinsic Basis Bonding Analysis (IBBA)          Author: G. Knizia

 Molecular orbitals read from record     2200.2  Type=UKS/ALPHA (state 1.1)
 Fock matrix read from record            2200.2  Type=UKS/TOTAL (state 1.1)
 Orbital energies read from record       2200.2  Type=UKS/ALPHA (state 1.1)
 Density matrix read from record         2200.2  Type=UKS/CHARGE (state 1.1)

 Number of core orbitals:           5 (   5 )
 Number of closed-shell orbitals:  16 (  16 )

 Basis set MINAO-AUTO-PP generated.      Number of basis functions:   37 

 Polarized AO type:                A = (O Ot + (1-O)(1-Ot)) P12
 Orthogonalization method:         Symmetric (Loewdin)
 Localization functional:          L = sum[A,i] <i|n_A|i>^4 -> max

 Localization group 1:  21 orbitals, occupancy  2.000
 Iterative localization: IB/PM,    8 iter; Final gradient 0.27E-09

 Bond order analysis:       [THRPRINT= 0.020]

   CEN ATOM   CEN ATOM     WIBERG.BO      RENORM.BO
     1   C  -   2   C       0.994354       0.997811
     1   C  -   3   C       0.994290       0.997760
     1   C  -   5   C       0.994263       0.997733
     1   C  -   4   C       0.994262       0.997731

     2   C  -   1   C       0.994354       0.997811
     2   C  -  17   H       0.970837       0.986539
     2   C  -  16   H       0.970837       0.986539
     2   C  -  15   H       0.970764       0.986594

     3   C  -   1   C       0.994290       0.997760
     3   C  -  10   H       0.970815       0.986557
     3   C  -   9   H       0.970814       0.986557
     3   C  -   6   H       0.970801       0.986581

     4   C  -   1   C       0.994262       0.997731
     4   C  -  12   H       0.970825       0.986554
     4   C  -  11   H       0.970806       0.986567
     4   C  -   7   H       0.970805       0.986591

     5   C  -   1   C       0.994263       0.997733
     5   C  -  13   H       0.970825       0.986554
     5   C  -  14   H       0.970805       0.986567
     5   C  -   8   H       0.970805       0.986591

     6   H  -   3   C       0.970801       0.986581

     7   H  -   4   C       0.970805       0.986591

     8   H  -   5   C       0.970805       0.986591

     9   H  -   3   C       0.970814       0.986557

    10   H  -   3   C       0.970815       0.986557

    11   H  -   4   C       0.970806       0.986567

    12   H  -   4   C       0.970825       0.986554

    13   H  -   5   C       0.970825       0.986554

    14   H  -   5   C       0.970805       0.986567

    15   H  -   2   C       0.970764       0.986594

    16   H  -   2   C       0.970837       0.986539

    17   H  -   2   C       0.970837       0.986539


 Valency analysis:

   CEN ATOM   TOT.VALENCE
     1   C       3.991100
     2   C       3.947333
     3   C       3.947308
     4   C       3.947301
     5   C       3.947301
     6   H       0.988544
     7   H       0.988542
     8   H       0.988543
     9   H       0.988570
    10   H       0.988570
    11   H       0.988560
    12   H       0.988581
    13   H       0.988581
    14   H       0.988560
    15   H       0.988501
    16   H       0.988597
    17   H       0.988597

 Total charge composition:

   CEN ATOM         s          p       ELECTRONS ->P.CHARGE
     1   C       2.91318    3.07090      5.98408    0.01592
     2   C       2.96614    3.35850      6.32463   -0.32463
     3   C       2.96614    3.35867      6.32481   -0.32481
     4   C       2.96615    3.35878      6.32492   -0.32492
     5   C       2.96615    3.35878      6.32492   -0.32492
     6   H       0.89297                 0.89297    0.10703
     7   H       0.89296                 0.89296    0.10704
     8   H       0.89296                 0.89296    0.10704
     9   H       0.89309                 0.89309    0.10691
    10   H       0.89309                 0.89309    0.10691
    11   H       0.89304                 0.89304    0.10696
    12   H       0.89314                 0.89314    0.10686
    13   H       0.89314                 0.89314    0.10686
    14   H       0.89304                 0.89304    0.10696
    15   H       0.89277                 0.89277    0.10723
    16   H       0.89322                 0.89322    0.10678
    17   H       0.89322                 0.89322    0.10678

 Total charge composition, AO contributions:

   CEN ATOM SHL      SPHERICAL COMPONENTS
     1   C  1s       1.99381
     1   C  2s       0.91937
     1   C  2p       1.02376    1.02363    1.02350

     2   C  1s       1.99310
     2   C  2s       0.97304
     2   C  2p       1.05437    1.15230    1.15182

     3   C  1s       1.99310
     3   C  2s       0.97304
     3   C  2p       1.14134    1.06527    1.15207

     4   C  1s       1.99310
     4   C  2s       0.97305
     4   C  2p       1.14137    1.13032    1.08709

     5   C  1s       1.99310
     5   C  2s       0.97305
     5   C  2p       1.14137    1.13033    1.08708

     6   H  1s       0.89297

     7   H  1s       0.89296

     8   H  1s       0.89296

     9   H  1s       0.89309

    10   H  1s       0.89309

    11   H  1s       0.89304

    12   H  1s       0.89314

    13   H  1s       0.89314

    14   H  1s       0.89304

    15   H  1s       0.89277

    16   H  1s       0.89322

    17   H  1s       0.89322

 Summary of localized orbital composition:   [THRPRINT= 0.020]

   ORB  GRP  ORB.ENERGY      CENTERS/CHARGES
     1   1    -9.819392      C  1   2.000
     2   1    -9.787798      C  2   2.000
     3   1    -9.787695      C  3   2.000
     4   1    -9.787639      C  4   2.000
     5   1    -9.787639      C  5   2.000
     6   1    -0.467977      C  2   0.993   C  1   0.985   (other: 0.022)
     7   1    -0.467841      C  3   0.993   C  1   0.985   (other: 0.022)
     8   1    -0.467697      C  5   0.993   C  1   0.985   (other: 0.022)
     9   1    -0.467692      C  4   0.993   C  1   0.985   (other: 0.022)
    10   1    -0.426470      C  2   1.107   H 15   0.886
    11   1    -0.426123      C  3   1.107   H  6   0.886
    12   1    -0.426089      C  4   1.107   H  7   0.886
    13   1    -0.426088      C  5   1.107   H  8   0.886
    14   1    -0.426066      C  4   1.106   H 12   0.886
    15   1    -0.426066      C  4   1.106   H 11   0.886
    16   1    -0.426065      C  5   1.106   H 14   0.886
    17   1    -0.426064      C  5   1.106   H 13   0.886
    18   1    -0.426044      C  3   1.106   H  9   0.886
    19   1    -0.426042      C  3   1.106   H 10   0.886
    20   1    -0.425939      C  2   1.106   H 17   0.886
    21   1    -0.425937      C  2   1.106   H 16   0.886

 Localized orbitals saved to record      2200.2  (orbital set 4)


 **********************************************************************************************************************************
 DATASETS  * FILE   NREC   LENGTH (MB)   RECORD NAMES
              1      20       33.19       500      610      700      900      950      970     1000      129      960     1100   
                                          VAR    BASINP    GEOM    SYMINP    ZMAT    AOBASIS   BASIS     P2S    ABASIS      S 
                                         1400     1410     1200     1210     1080     1600     1650     1300     1700     1800   
                                           T        V       H0       H01     AOSYM     SMH    MOLCAS    ERIS     OPER     GRID   

              2       5        3.11       700     1000      520     1800     2200   
                                         GEOM     BASIS   MCVARS    GRID      UKS  

 PROGRAMS   *        TOTAL      IBBA       UKS       INT
 CPU TIMES  *        15.58      0.03     14.93      0.47
 REAL TIME  *        16.71 SEC
 DISK USED  *        37.15 MB      
 **********************************************************************************************************************************
 Molecular orbitals read from record     2200.2  Type=UKS/LOCAL(IBO)  
 Occupation numbers read from record     2200.2  Type=UKS/LOCAL(IBO)  
 Orbital energies read from record       2200.2  Type=UKS/LOCAL(IBO)  
 Redundancy group numbers read from rec  2200.2  Type=UKS/BETA (state 1.1)

 IBBA/STO-3G energy=      0.000000000000

        UKS-SCF 
   -187.94503120
 **********************************************************************************************************************************
 Molpro calculation terminated
