
 Primary working directories    : /local
 Secondary working directories  : /local
 Wavefunction directory         : /local/
 Main file repository           : /local/

 SHA1      : b4a5b34a9e711420743f49e6833241d17c61fb3c
 NAME      : 2099.9.b4a5b34
 ARCHNAME  : linux/x86_64_openmp
 FC        : /cm/shared/languages/GCC-6.1/bin/gfortran
 BLASLIB   : -lblas
 id        : simonbennie

 Nodes     nprocs
 node47-021    1

 Using customized tuning parameters: mindgm=1; mindgv=20; mindgc=4; mindgr=1; noblas=0; minvec=7
 default implementation of scratch files=df  

 memory,500,m
 geomtyp=xyz
 nosym
 noorient
 geometry={
 C         -1.53233        0.02247        0.00000
 C         -0.00192        0.01421        0.00000
 O          0.37239        1.40356        0.00000
 H          1.34248        1.44036        0.00000
 H         -1.92991       -0.99819        0.00000
 H         -1.90797        0.54382       -0.88653
 H         -1.90797        0.54382        0.88653
 C          0.54303       -0.66466       -1.26580
 C          0.54303       -0.66466        1.26580
 H          0.17836       -0.14752       -2.15943
 H          0.17836       -0.14752        2.15943
 H          0.23752       -1.71600       -1.32280
 H          0.23752       -1.71600        1.32280
 H          1.64084       -0.63767       -1.28032
 H          1.64084       -0.63767        1.28032
 }
 basis={ default,avdz }
 {uks,M06-L,direct;wf,42,1,0}
 {ibba,bonds=1}

 Variables initialized (895), CPU time= 0.01 sec
 Commands  initialized (725), CPU time= 0.01 sec, 591 directives.
 Default parameters read. Elapsed time= 0.09 sec

 Checking input...
 Passed
1


                                         ***  PROGRAM SYSTEM MOLPRO  ***
                                       Copyright, TTI GmbH Stuttgart, 2015
                                    Version 2099.9 linked May 26 2017 16:03:21


 **********************************************************************************************************************************
 LABEL *                                                                                 
  64 bit serial version                                                                  DATE: 12-Jun-17          TIME: 16:21:30  
 **********************************************************************************************************************************

 SHA1:             b4a5b34a9e711420743f49e6833241d17c61fb3c
 **********************************************************************************************************************************
 SETTING GEOMTYP        =    XYZ

 Variable memory set to  500000000 words,  buffer space 

 ZSYMEL=NOSYM

 SETTING BASIS          =    AVDZ


 Recomputing integrals since basis changed


 Using spherical harmonics

 Library entry C      S aug-cc-pVDZ          selected for orbital group  1
 Library entry C      P aug-cc-pVDZ          selected for orbital group  1
 Library entry C      D aug-cc-pVDZ          selected for orbital group  1
 Library entry O      S aug-cc-pVDZ          selected for orbital group  2
 Library entry O      P aug-cc-pVDZ          selected for orbital group  2
 Library entry O      D aug-cc-pVDZ          selected for orbital group  2
 Library entry H      S aug-cc-pVDZ          selected for orbital group  3
 Library entry H      P aug-cc-pVDZ          selected for orbital group  3


 PROGRAM * SEWARD (Integral evaluation for generally contracted gaussian basis sets)     Author: Roland Lindh, 1990

 Geometry written to block  1 of record 700


 Point group  C1  



 ATOMIC COORDINATES

 NR  ATOM    CHARGE       X              Y              Z

   1  C       6.00   -2.895684032    0.042462146    0.000000000
   2  C       6.00   -0.003628274    0.026853008    0.000000000
   3  O       8.00    0.703715112    2.652343999    0.000000000
   4  H       1.00    2.536919528    2.721885921    0.000000000
   5  H       1.00   -3.647001345   -1.886305720    0.000000000
   6  H       1.00   -3.605540754    1.027670861   -1.675298901
   7  H       1.00   -3.605540754    1.027670861    1.675298901
   8  C       6.00    1.026177977   -1.256025366   -2.392015328
   9  C       6.00    1.026177977   -1.256025366    2.392015328
  10  H       1.00    0.337051552   -0.278772398   -4.080731285
  11  H       1.00    0.337051552   -0.278772398    4.080731285
  12  H       1.00    0.448847749   -3.242770030   -2.499729718
  13  H       1.00    0.448847749   -3.242770030    2.499729718
  14  H       1.00    3.100738214   -1.205021658   -2.419454152
  15  H       1.00    3.100738214   -1.205021658    2.419454152

 Bond lengths in Bohr (Angstrom)

 1-2  2.892097881  1-5  2.069933136  1-6  2.069096224  1-7  2.069096224  2-3  2.719106031
     ( 1.530432290)     ( 1.095361444)     ( 1.094918569)     ( 1.094918569)     ( 1.438888946)

  2- 8  2.903104402   2- 9  2.903104402   3- 4  1.834522965   8-10  2.069222119   8-12  2.071730422
       ( 1.536256691)       ( 1.536256691)       ( 0.970787746)       ( 1.094985190)       ( 1.096312526)

  8-14  2.075368508   9-11  2.069222119   9-13  2.071730422   9-15  2.075368508
       ( 1.098237719)       ( 1.094985190)       ( 1.096312526)       ( 1.098237719)

 Bond angles

  1-2-3  104.76902697   1-2-8  110.92255387   1-2-9  110.92255387   2-1-5  110.97328220

  2- 1- 6  110.22090701   2- 1- 7  110.22090701   2- 3- 4  107.25071562   2- 8-10  110.21836376

  2- 8-12  111.57747468   2- 8-14  110.77023896   2- 9-11  110.21836376   2- 9-13  111.57747468

  2- 9-15  110.77023896   3- 2- 8  109.53648747   3- 2- 9  109.53648747   5- 1- 6  108.61190457

  5- 1- 7  108.61190457   6- 1- 7  108.12870271   8- 2- 9  110.96453384  10- 8-12  108.52192632

 10- 8-14  108.08997829  11- 9-13  108.52192632  11- 9-15  108.08997829  12- 8-14  107.54424578

 13- 9-15  107.54424578

 NUCLEAR CHARGE:                   42
 NUMBER OF PRIMITIVE AOS:         295
 NUMBER OF SYMMETRY AOS:          285
 NUMBER OF CONTRACTIONS:          205   ( 205A   )
 NUMBER OF CORE ORBITALS:           5   (   5A   )
 NUMBER OF VALENCE ORBITALS:       30   (  30A   )


 NUCLEAR REPULSION ENERGY  198.77359127


 Eigenvalues of metric

         1 0.151E-04 0.552E-04 0.579E-04 0.110E-03 0.111E-03 0.217E-03 0.237E-03 0.259E-03


 Contracted 2-electron integrals neglected if value below      1.0D-12
 AO integral compression algorithm  1   Integral accuracy      1.0D-12

     1203.503 MB (compressed) written to integral file ( 61.3%)


 NUMBER OF SORTED TWO-ELECTRON INTEGRALS:  222932170.     BUFFER LENGTH:  32768
 NUMBER OF SEGMENTS:  14  SEGMENT LENGTH:   15999503      RECORD LENGTH: 524288

 Memory used in sort:      16.56 MW

 SORT1 READ   245224724. AND WROTE   218324786. INTEGRALS IN    630 RECORDS. CPU TIME:     3.30 SEC, REAL TIME:     7.51 SEC
 SORT2 READ   218324786. AND WROTE   222932170. INTEGRALS IN   4591 RECORDS. CPU TIME:     5.41 SEC, REAL TIME:    38.93 SEC

 FILE SIZES:   FILE 1:  1235.3 MBYTE,  FILE 4:  2642.4 MBYTE,   TOTAL:   3877.7 MBYTE

 OPERATOR DM      FOR CENTER  0  COORDINATES:    0.000000    0.000000    0.000000


 **********************************************************************************************************************************
 DATASETS  * FILE   NREC   LENGTH (MB)   RECORD NAMES
              1      19     1149.90       500      610      700      900      950      970     1000      129      960     1100   
                                          VAR    BASINP    GEOM    SYMINP    ZMAT    AOBASIS   BASIS     P2S    ABASIS      S 
                                         1400     1410     1200     1210     1080     1600     1650     1300     1700   
                                           T        V       H0       H01     AOSYM     SMH    MOLCAS    ERIS     OPER   

 PROGRAMS   *        TOTAL       INT
 CPU TIMES  *        20.57     20.43
 REAL TIME  *        81.43 SEC
 DISK USED  *         3.88 GB      
 **********************************************************************************************************************************

 Density functional group M06-L=XC-M06-L
 Functional: XC-M06-L(via MFM 1.6)                                             Gradient terms: 1
 Use grid at  1800.2

 Functional: XC-M06-L                  Factor:  1.0000

 Generated new metagrid on record  1800.2 with target accuracy 1.0D-06 and 53396 points in CPU time    1.7
 Computed new grid on record 1800.1 in CPU time    1.9
  167289 words reserved for DFT integration

 PROGRAM * UKS-SCF (Unrestricted Kohn-Sham)     Authors: W. Meyer, H.-J. Werner, P.J. Knowles, 1993

 NUMBER OF ELECTRONS:      21+   21-    SPACE SYMMETRY=1    SPIN SYMMETRY: Singlet 
 CONVERGENCE THRESHOLDS:    1.00E-05 (Density)    1.00E-06 (Energy)
 MAX. NUMBER OF ITERATIONS:       60
 INTERPOLATION TYPE:            DIIS
 INTERPOLATION STEPS:              2 (START)      1 (STEP)
 LEVEL SHIFTS:                 -0.20 (ALPHA)  -0.20 (BETA) 



 Use fine grid record 1800.2 for energy threshold  1.0D-06
 Orbital guess generated from atomic densities. Full valence occupancy:   35

 Molecular orbital dump at record        2200.2

 Initial alpha occupation  21
 Initial beta  occupation  21

 ITERATION    DDIFF          GRAD             ENERGY        2-EL.EN.            DIPOLE MOMENTS         DIIS
    1      0.000D+00      0.000D+00      -233.44087764    637.178710    0.66913   -0.77245    0.00000    0
    2      0.299D-01      0.320D-02      -233.62594499    616.391710    0.20850   -0.46961    0.00000    1
    3      0.791D-02      0.157D-02      -233.66566417    622.228751    0.34999   -0.57048    0.00000    2
    4      0.294D-02      0.210D-03      -233.66655738    621.919013    0.33331   -0.51831    0.00000    3
    5      0.220D-02      0.973D-04      -233.66683424    621.850155    0.33234   -0.52495    0.00000    4
    6      0.125D-02      0.282D-04      -233.66687825    621.832547    0.33134   -0.51834    0.00000    5
    7      0.327D-03      0.124D-04      -233.66688259    621.801453    0.33006   -0.51780    0.00000    6
    8      0.122D-03      0.455D-05      -233.66688325    621.808930    0.32986   -0.51812    0.00000    7
    9      0.318D-04      0.680D-06      -233.66688328    621.807061    0.32981   -0.51764    0.00000    6
   10      0.103D-04      0.271D-06      -233.66688329    621.807973    0.32974   -0.51778    0.00000    7
   11      0.268D-05      0.853D-07      -233.66688329    621.807622    0.32973   -0.51777    0.00000    7
   12      0.597D-06      0.282D-07      -233.66688329    621.807726    0.32973   -0.51776    0.00000    7

 Final alpha occupancy:  21
 Final beta  occupancy:  21

 !UKS STATE 1.1 Energy               -233.666883288961
 Nuclear energy                       198.77359127
 One-electron energy                 -709.29875355
 Two-electron energy                  310.90386300
 Density functional                   -34.04558401     XC-M06-L=-34.04558401
 Virial quotient                       -1.00661036
 !UKS STATE 1.1 Dipole moment           0.32972832    -0.51776144     0.00000000
 Dipole moment /Debye                   0.83803089    -1.31593212     0.00000000

 Orbital energies for positive spin:

         1.1          2.1          3.1          4.1          5.1          6.1          7.1          8.1          9.1         10.1
    -18.973249   -10.115724   -10.049733   -10.049723   -10.044780    -0.991011    -0.752668    -0.655784    -0.654802    -0.531593

        11.1         12.1         13.1         14.1         15.1         16.1         17.1         18.1         19.1         20.1
     -0.452983    -0.414434    -0.411212    -0.375859    -0.361721    -0.346071    -0.332577    -0.321006    -0.314320    -0.287742

        21.1         22.1         23.1
     -0.234361    -0.010462     0.009380

 Orbital energies for negative spin:

         1.1          2.1          3.1          4.1          5.1          6.1          7.1          8.1          9.1         10.1
    -18.973249   -10.115724   -10.049733   -10.049723   -10.044780    -0.991011    -0.752668    -0.655784    -0.654802    -0.531593

        11.1         12.1         13.1         14.1         15.1         16.1         17.1         18.1         19.1         20.1
     -0.452983    -0.414434    -0.411212    -0.375859    -0.361721    -0.346071    -0.332577    -0.321006    -0.314320    -0.287742

        21.1         22.1         23.1
     -0.234361    -0.010462     0.009380

 HOMO     21.1    -0.234361 =      -6.3773eV
 LUMO     22.1    -0.010462 =      -0.2847eV
 LUMO-HOMO         0.223900 =       6.0926eV

 EXPECTATION VALUE OF S**2:            -0.00000000

 Natural orbitals saved to record    2200.2 (Orbital set 3)

 Orbital spaces for UNO-CAS (Min. occupation: 0.020  Max. occupation: 1.980):

 Closed:       21
 Active:        0


 **********************************************************************************************************************************
 DATASETS  * FILE   NREC   LENGTH (MB)   RECORD NAMES
              1      20     1151.61       500      610      700      900      950      970     1000      129      960     1100   
                                          VAR    BASINP    GEOM    SYMINP    ZMAT    AOBASIS   BASIS     P2S    ABASIS      S 
                                         1400     1410     1200     1210     1080     1600     1650     1300     1700     1800   
                                           T        V       H0       H01     AOSYM     SMH    MOLCAS    ERIS     OPER     GRID   

              2       5        4.72       700     1000      520     1800     2200   
                                         GEOM     BASIS   MCVARS    GRID      UKS  

 PROGRAMS   *        TOTAL       UKS       INT
 CPU TIMES  *       272.36    251.79     20.43
 REAL TIME  *       342.67 SEC
 DISK USED  *         3.88 GB      
 **********************************************************************************************************************************


 PROGRAM * Intrinsic Basis Bonding Analysis (IBBA)          Author: G. Knizia

 Molecular orbitals read from record     2200.2  Type=UKS/ALPHA (state 1.1)
 Fock matrix read from record            2200.2  Type=UKS/TOTAL (state 1.1)
 Orbital energies read from record       2200.2  Type=UKS/ALPHA (state 1.1)
 Density matrix read from record         2200.2  Type=UKS/CHARGE (state 1.1)

 Number of core orbitals:           5 (   5 )
 Number of closed-shell orbitals:  16 (  16 )

 Basis set MINAO-AUTO-PP generated.      Number of basis functions:   35 

 Polarized AO type:                A = (O Ot + (1-O)(1-Ot)) P12
 Orthogonalization method:         Symmetric (Loewdin)
 Localization functional:          L = sum[A,i] <i|n_A|i>^4 -> max

 Localization group 1:  21 orbitals, occupancy  2.000
 Iterative localization: IB/PM,    7 iter; Final gradient 0.34E-08

 Bond order analysis:       [THRPRINT= 0.020]

   CEN ATOM   CEN ATOM     WIBERG.BO      RENORM.BO
     1   C  -   2   C       0.997510       0.994118
     1   C  -   5   H       0.963618       0.987480
     1   C  -   6   H       0.959147       0.981515
     1   C  -   7   H       0.959147       0.981515

     2   C  -   1   C       0.997510       0.994118
     2   C  -   9   C       0.995478       0.975696
     2   C  -   8   C       0.995478       0.975696
     2   C  -   3   O       0.928188       0.947099

     3   O  -   2   C       0.928188       0.947099
     3   O  -   4   H       0.859875       0.977373
     3   O  -   8   C       0.028283       0.014350
     3   O  -   9   C       0.028283       0.014350

     4   H  -   3   O       0.859875       0.977373

     5   H  -   1   C       0.963618       0.987480

     6   H  -   1   C       0.959147       0.981515

     7   H  -   1   C       0.959147       0.981515

     8   C  -   2   C       0.995478       0.975696
     8   C  -  14   H       0.963268       0.982225
     8   C  -  10   H       0.959510       0.981309
     8   C  -  12   H       0.958923       0.980478
     8   C  -   3   O       0.028283       0.014350

     9   C  -   2   C       0.995478       0.975696
     9   C  -  15   H       0.963268       0.982225
     9   C  -  11   H       0.959510       0.981309
     9   C  -  13   H       0.958923       0.980478
     9   C  -   3   O       0.028283       0.014350

    10   H  -   8   C       0.959510       0.981309

    11   H  -   9   C       0.959510       0.981309

    12   H  -   8   C       0.958923       0.980478

    13   H  -   9   C       0.958923       0.980478

    14   H  -   8   C       0.963268       0.982225

    15   H  -   9   C       0.963268       0.982225


 Valency analysis:

   CEN ATOM   TOT.VALENCE
     1   C       3.939363
     2   C       3.926329
     3   O       1.913041
     4   H       0.879350
     5   H       0.981673
     6   H       0.979320
     7   H       0.979320
     8   C       3.941418
     9   C       3.941418
    10   H       0.979317
    11   H       0.979317
    12   H       0.981169
    13   H       0.981169
    14   H       0.983291
    15   H       0.983291

 Total charge composition:

   CEN ATOM         s          p       ELECTRONS ->P.CHARGE
     1   C       3.06040    3.36024      6.42064   -0.42064
     2   C       2.94915    2.77105      5.72021    0.27979
     3   O       3.67128    4.91176      8.58304   -0.58304
     4   H       0.65265                 0.65265    0.34735
     5   H       0.86462                 0.86462    0.13538
     6   H       0.85619                 0.85619    0.14381
     7   H       0.85619                 0.85619    0.14381
     8   C       3.06657    3.36696      6.43353   -0.43353
     9   C       3.06657    3.36696      6.43353   -0.43353
    10   H       0.85618                 0.85618    0.14382
    11   H       0.85618                 0.85618    0.14382
    12   H       0.86277                 0.86277    0.13723
    13   H       0.86277                 0.86277    0.13723
    14   H       0.87074                 0.87074    0.12926
    15   H       0.87074                 0.87074    0.12926

 Total charge composition, AO contributions:

   CEN ATOM SHL      SPHERICAL COMPONENTS
     1   C  1s       1.99086
     1   C  2s       1.06954
     1   C  2p       1.04055    1.15444    1.16526

     2   C  1s       1.99256
     2   C  2s       0.95659
     2   C  2p       0.99604    0.77534    0.99968

     3   O  1s       1.99708
     3   O  2s       1.67420
     3   O  2p       1.46843    1.48873    1.95459

     4   H  1s       0.65265

     5   H  1s       0.86462

     6   H  1s       0.85619

     7   H  1s       0.85619

     8   C  1s       1.99096
     8   C  2s       1.07560
     8   C  2p       1.13787    1.13698    1.09211

     9   C  1s       1.99096
     9   C  2s       1.07560
     9   C  2p       1.13787    1.13698    1.09211

    10   H  1s       0.85618

    11   H  1s       0.85618

    12   H  1s       0.86277

    13   H  1s       0.86277

    14   H  1s       0.87074

    15   H  1s       0.87074

 Summary of localized orbital composition:   [THRPRINT= 0.020]

   ORB  GRP  ORB.ENERGY      CENTERS/CHARGES
     1   1   -18.803960      O  3   2.000
     2   1   -10.023807      C  2   2.000
     3   1    -9.933433      C  8   2.000
     4   1    -9.933433      C  9   2.000
     5   1    -9.927639      C  1   2.000
     6   1    -0.722472      O  3   1.349   H  4   0.641
     7   1    -0.676776      O  3   1.294   C  2   0.686
     8   1    -0.567945      O  3   1.982
     9   1    -0.541171      C  1   0.997   C  2   0.980   (other: 0.023)
    10   1    -0.540943      C  9   1.013   C  2   0.972
    11   1    -0.540943      C  8   1.013   C  2   0.972
    12   1    -0.470957      C  8   1.133   H 12   0.853
    13   1    -0.470957      C  9   1.133   H 13   0.853
    14   1    -0.469019      C  8   1.125   H 14   0.864
    15   1    -0.469019      C  9   1.125   H 15   0.864
    16   1    -0.467485      C  1   1.128   H  5   0.858
    17   1    -0.464480      C  9   1.141   H 11   0.848
    18   1    -0.464480      C  8   1.141   H 10   0.848
    19   1    -0.459877      C  1   1.140   H  6   0.848
    20   1    -0.459877      C  1   1.140   H  7   0.848
    21   1    -0.262674      O  3   1.955   (other: 0.045)

 Localized orbitals saved to record      2200.2  (orbital set 4)


 **********************************************************************************************************************************
 DATASETS  * FILE   NREC   LENGTH (MB)   RECORD NAMES
              1      20     1151.61       500      610      700      900      950      970     1000      129      960     1100   
                                          VAR    BASINP    GEOM    SYMINP    ZMAT    AOBASIS   BASIS     P2S    ABASIS      S 
                                         1400     1410     1200     1210     1080     1600     1650     1300     1700     1800   
                                           T        V       H0       H01     AOSYM     SMH    MOLCAS    ERIS     OPER     GRID   

              2       5        5.06       700     1000      520     1800     2200   
                                         GEOM     BASIS   MCVARS    GRID      UKS  

 PROGRAMS   *        TOTAL      IBBA       UKS       INT
 CPU TIMES  *       272.43      0.07    251.79     20.43
 REAL TIME  *       342.86 SEC
 DISK USED  *         3.88 GB      
 **********************************************************************************************************************************
 Molecular orbitals read from record     2200.2  Type=UKS/LOCAL(IBO)  
 Occupation numbers read from record     2200.2  Type=UKS/LOCAL(IBO)  
 Orbital energies read from record       2200.2  Type=UKS/LOCAL(IBO)  
 Redundancy group numbers read from rec  2200.2  Type=UKS/BETA (state 1.1)

 IBBA/aug-cc-pVDZ energy=      0.000000000000

        UKS-SCF 
   -233.66688329
 **********************************************************************************************************************************
 Molpro calculation terminated
