
 Primary working directories    : /local
 Secondary working directories  : /local
 Wavefunction directory         : /local/
 Main file repository           : /local/

 SHA1      : b4a5b34a9e711420743f49e6833241d17c61fb3c
 NAME      : 2099.9.b4a5b34
 ARCHNAME  : linux/x86_64_openmp
 FC        : /cm/shared/languages/GCC-6.1/bin/gfortran
 BLASLIB   : -lblas
 id        : simonbennie

 Nodes     nprocs
 node32-031    1

 Using customized tuning parameters: mindgm=1; mindgv=20; mindgc=4; mindgr=1; noblas=0; minvec=7
 default implementation of scratch files=df  

 memory,500,m
 geomtyp=xyz
 nosym
 noorient
 geometry={
 C         -1.53233        0.02247        0.00000
 C         -0.00192        0.01421        0.00000
 O          0.37239        1.40356        0.00000
 H          1.34248        1.44036        0.00000
 H         -1.92991       -0.99819        0.00000
 H         -1.90797        0.54382       -0.88653
 H         -1.90797        0.54382        0.88653
 C          0.54303       -0.66466       -1.26580
 C          0.54303       -0.66466        1.26580
 H          0.17836       -0.14752       -2.15943
 H          0.17836       -0.14752        2.15943
 H          0.23752       -1.71600       -1.32280
 H          0.23752       -1.71600        1.32280
 H          1.64084       -0.63767       -1.28032
 H          1.64084       -0.63767        1.28032
 }
 basis={ default,SV(P) }
 {ks,PW91,direct;wf,42,1,0}
 {ibba,bonds=1}

 Variables initialized (895), CPU time= 0.00 sec
 Commands  initialized (725), CPU time= 0.01 sec, 591 directives.
 Default parameters read. Elapsed time= 1.95 sec

 Checking input...
 Passed
1


                                         ***  PROGRAM SYSTEM MOLPRO  ***
                                       Copyright, TTI GmbH Stuttgart, 2015
                                    Version 2099.9 linked May 26 2017 16:03:21


 **********************************************************************************************************************************
 LABEL *                                                                                 
  64 bit serial version                                                                  DATE: 12-Jun-17          TIME: 20:30:44  
 **********************************************************************************************************************************

 SHA1:             b4a5b34a9e711420743f49e6833241d17c61fb3c
 **********************************************************************************************************************************
 SETTING GEOMTYP        =    XYZ

 Variable memory set to  500000000 words,  buffer space 

 ZSYMEL=NOSYM

 SETTING BASIS          =    SV(P)


 Recomputing integrals since basis changed


 Using spherical harmonics

 Library entry C      S def2-SV(P)           selected for orbital group  1
 Library entry C      P def2-SV(P)           selected for orbital group  1
 Library entry C      D def2-SV(P)           selected for orbital group  1
 Library entry O      S def2-SV(P)           selected for orbital group  2
 Library entry O      P def2-SV(P)           selected for orbital group  2
 Library entry O      D def2-SV(P)           selected for orbital group  2
 Library entry H      S def2-SV(P)           selected for orbital group  3


 PROGRAM * SEWARD (Integral evaluation for generally contracted gaussian basis sets)     Author: Roland Lindh, 1990

 Geometry written to block  1 of record 700


 Point group  C1  



 ATOMIC COORDINATES

 NR  ATOM    CHARGE       X              Y              Z

   1  C       6.00   -2.895684032    0.042462146    0.000000000
   2  C       6.00   -0.003628274    0.026853008    0.000000000
   3  O       8.00    0.703715112    2.652343999    0.000000000
   4  H       1.00    2.536919528    2.721885921    0.000000000
   5  H       1.00   -3.647001345   -1.886305720    0.000000000
   6  H       1.00   -3.605540754    1.027670861   -1.675298901
   7  H       1.00   -3.605540754    1.027670861    1.675298901
   8  C       6.00    1.026177977   -1.256025366   -2.392015328
   9  C       6.00    1.026177977   -1.256025366    2.392015328
  10  H       1.00    0.337051552   -0.278772398   -4.080731285
  11  H       1.00    0.337051552   -0.278772398    4.080731285
  12  H       1.00    0.448847749   -3.242770030   -2.499729718
  13  H       1.00    0.448847749   -3.242770030    2.499729718
  14  H       1.00    3.100738214   -1.205021658   -2.419454152
  15  H       1.00    3.100738214   -1.205021658    2.419454152

 Bond lengths in Bohr (Angstrom)

 1-2  2.892097881  1-5  2.069933136  1-6  2.069096224  1-7  2.069096224  2-3  2.719106031
     ( 1.530432290)     ( 1.095361444)     ( 1.094918569)     ( 1.094918569)     ( 1.438888946)

  2- 8  2.903104402   2- 9  2.903104402   3- 4  1.834522965   8-10  2.069222119   8-12  2.071730422
       ( 1.536256691)       ( 1.536256691)       ( 0.970787746)       ( 1.094985190)       ( 1.096312526)

  8-14  2.075368508   9-11  2.069222119   9-13  2.071730422   9-15  2.075368508
       ( 1.098237719)       ( 1.094985190)       ( 1.096312526)       ( 1.098237719)

 Bond angles

  1-2-3  104.76902697   1-2-8  110.92255387   1-2-9  110.92255387   2-1-5  110.97328220

  2- 1- 6  110.22090701   2- 1- 7  110.22090701   2- 3- 4  107.25071562   2- 8-10  110.21836376

  2- 8-12  111.57747468   2- 8-14  110.77023896   2- 9-11  110.21836376   2- 9-13  111.57747468

  2- 9-15  110.77023896   3- 2- 8  109.53648747   3- 2- 9  109.53648747   5- 1- 6  108.61190457

  5- 1- 7  108.61190457   6- 1- 7  108.12870271   8- 2- 9  110.96453384  10- 8-12  108.52192632

 10- 8-14  108.08997829  11- 9-13  108.52192632  11- 9-15  108.08997829  12- 8-14  107.54424578

 13- 9-15  107.54424578

 NUCLEAR CHARGE:                   42
 NUMBER OF PRIMITIVE AOS:         165
 NUMBER OF SYMMETRY AOS:          160
 NUMBER OF CONTRACTIONS:           90   (  90A   )
 NUMBER OF CORE ORBITALS:           5   (   5A   )
 NUMBER OF VALENCE ORBITALS:       30   (  30A   )


 NUCLEAR REPULSION ENERGY  198.77359127


 Eigenvalues of metric

         1 0.179E-02 0.600E-02 0.603E-02 0.144E-01 0.286E-01 0.297E-01 0.300E-01 0.361E-01


 Contracted 2-electron integrals neglected if value below      1.0D-11
 AO integral compression algorithm  1   Integral accuracy      1.0D-11

     37.487 MB (compressed) written to integral file ( 49.6%)


 NUMBER OF SORTED TWO-ELECTRON INTEGRALS:    8386560.     BUFFER LENGTH:  32768
 NUMBER OF SEGMENTS:   1  SEGMENT LENGTH:    8386560      RECORD LENGTH: 524288

 Memory used in sort:       8.94 MW

 SORT1 READ     9478508. AND WROTE     7931434. INTEGRALS IN     23 RECORDS. CPU TIME:     0.10 SEC, REAL TIME:     0.21 SEC
 SORT2 READ     7931434. AND WROTE     8386560. INTEGRALS IN    143 RECORDS. CPU TIME:     0.23 SEC, REAL TIME:     0.29 SEC

 FILE SIZES:   FILE 1:    68.0 MBYTE,  FILE 4:    96.5 MBYTE,   TOTAL:    164.5 MBYTE

 OPERATOR DM      FOR CENTER  0  COORDINATES:    0.000000    0.000000    0.000000


 **********************************************************************************************************************************
 DATASETS  * FILE   NREC   LENGTH (MB)   RECORD NAMES
              1      19       63.39       500      610      700      900      950      970     1000      129      960     1100   
                                          VAR    BASINP    GEOM    SYMINP    ZMAT    AOBASIS   BASIS     P2S    ABASIS      S 
                                         1400     1410     1200     1210     1080     1600     1650     1300     1700   
                                           T        V       H0       H01     AOSYM     SMH    MOLCAS    ERIS     OPER   

 PROGRAMS   *        TOTAL       INT
 CPU TIMES  *         1.78      1.66
 REAL TIME  *         5.48 SEC
 DISK USED  *       165.03 MB      
 **********************************************************************************************************************************

 Density functional group PW91=PW91X+PW91C
 Functional: PW91X(Automatically generated (new) PW91X)                        Gradient terms: 1
 Functional: PW91C(Automatically generated (new) PW91C)                        Gradient terms: 1
 Use grid at  1800.2

 Functional: PW91X                     Factor:  1.0000
 Functional: PW91C                     Factor:  1.0000

 Generated new metagrid on record  1800.2 with target accuracy 1.0D-06 and 53396 points in CPU time    1.5
 Computed new grid on record 1800.1 in CPU time    1.7
   75909 words reserved for DFT integration

 PROGRAM * RKS-SCF (Restricted closed shell Kohn-Sham)     Authors: W. Meyer, H.-J. Werner, P.J. Knowles, 1993

 NUMBER OF ELECTRONS:      21+   21-    SPACE SYMMETRY=1    SPIN SYMMETRY: Singlet 
 CONVERGENCE THRESHOLDS:    1.00E-05 (Density)    1.00E-06 (Energy)
 MAX. NUMBER OF ITERATIONS:       60
 INTERPOLATION TYPE:            DIIS
 INTERPOLATION STEPS:              2 (START)      1 (STEP)
 LEVEL SHIFTS:                  0.00 (CLOSED)  0.00 (OPEN) 



 Use fine grid record 1800.2 for energy threshold  1.0D-06
 Orbital guess generated from atomic densities. Full valence occupancy:   21

 Molecular orbital dump at record        2100.2

 Initial occupancy:  21

 ITERATION    DDIFF          GRAD             ENERGY        2-EL.EN.            DIPOLE MOMENTS         DIIS   ORB.
    1      0.000D+00      0.000D+00      -233.06053390    639.800182    0.74398   -0.81181    0.00000    0    start
    2      0.000D+00      0.141D-01      -232.62214081    593.162641   -0.36429    0.49663    0.00000    1    diag
    3      0.488D-01      0.217D-01      -233.35850395    623.074509    0.43581   -0.59875    0.00000    2    diag
    4      0.367D-01      0.197D-02      -233.36195491    621.823772    0.37530   -0.35269    0.00000    3    diag
    5      0.302D-02      0.105D-02      -233.36329187    621.744798    0.37769   -0.44593    0.00000    4    diag
    6      0.114D-02      0.236D-03      -233.36335249    621.848566    0.38020   -0.43254    0.00000    5    diag
    7      0.283D-03      0.821D-04      -233.36336088    621.827961    0.38094   -0.43358    0.00000    6    diag
    8      0.709D-04      0.530D-05      -233.36336092    621.834079    0.38072   -0.43481    0.00000    7    diag
    9      0.104D-04      0.178D-05      -233.36336093    621.834264    0.38080   -0.43454    0.00000    8    diag
   10      0.235D-05      0.484D-06      -233.36336093    621.833936    0.38088   -0.43447    0.00000    0    orth

 Final occupancy:  21

 !RKS STATE 1.1 Energy               -233.363360926174
 Nuclear energy                       198.77359127
 One-electron energy                 -709.15833016
 Two-electron energy                  310.91696824
 Density functional                   -33.89559028     PW91X=-32.43032214 PW91C= -1.46526814
 Virial quotient                       -1.00953521
 !RKS STATE 1.1 Dipole moment           0.38087702    -0.43447019     0.00000000
 Dipole moment /Debye                   0.96802942    -1.10424075     0.00000000

 Orbital energies:

         1.1          2.1          3.1          4.1          5.1          6.1          7.1          8.1          9.1         10.1
    -18.753794    -9.961197    -9.891695    -9.891678    -9.886153    -0.912781    -0.705780    -0.617662    -0.616684    -0.507941

        11.1         12.1         13.1         14.1         15.1         16.1         17.1         18.1         19.1         20.1
     -0.436371    -0.401387    -0.399516    -0.363092    -0.351745    -0.335171    -0.322922    -0.308233    -0.303784    -0.271594

        21.1         22.1         23.1
     -0.214047     0.014096     0.061333

 HOMO     21.1    -0.214047 =      -5.8245eV
 LUMO     22.1     0.014096 =       0.3836eV
 LUMO-HOMO         0.228143 =       6.2081eV


 **********************************************************************************************************************************
 DATASETS  * FILE   NREC   LENGTH (MB)   RECORD NAMES
              1      20       65.10       500      610      700      900      950      970     1000      129      960     1100   
                                          VAR    BASINP    GEOM    SYMINP    ZMAT    AOBASIS   BASIS     P2S    ABASIS      S 
                                         1400     1410     1200     1210     1080     1600     1650     1300     1700     1800   
                                           T        V       H0       H01     AOSYM     SMH    MOLCAS    ERIS     OPER     GRID   

              2       5        3.17       700     1000      520     1800     2100   
                                         GEOM     BASIS   MCVARS    GRID      RKS  

 PROGRAMS   *        TOTAL        KS       INT
 CPU TIMES  *        11.63      9.85      1.66
 REAL TIME  *        17.31 SEC
 DISK USED  *       165.03 MB      
 **********************************************************************************************************************************


 PROGRAM * Intrinsic Basis Bonding Analysis (IBBA)          Author: G. Knizia

 Molecular orbitals read from record     2100.2  Type=RKS/CANONICAL (state 1.1)
 Fock matrix read from record            2100.2  Type=RKS/TOTAL (state 1.1)
 Orbital energies read from record       2100.2  Type=RKS/CANONICAL (state 1.1)
 Density matrix read from record         2100.2  Type=RKS/CHARGE (state 1.1)

 Number of core orbitals:           5 (   5 )
 Number of closed-shell orbitals:  16 (  16 )

 Basis set MINAO-AUTO-PP generated.      Number of basis functions:   35 

 Polarized AO type:                A = (O Ot + (1-O)(1-Ot)) P12
 Orthogonalization method:         Symmetric (Loewdin)
 Localization functional:          L = sum[A,i] <i|n_A|i>^4 -> max

 Localization group 1:  21 orbitals, occupancy  2.000
 Iterative localization: IB/PM,    7 iter; Final gradient 0.28E-08

 Bond order analysis:       [THRPRINT= 0.020]

   CEN ATOM   CEN ATOM     WIBERG.BO      RENORM.BO
     1   C  -   2   C       0.994147       0.992323
     1   C  -   5   H       0.963982       0.986184
     1   C  -   6   H       0.959187       0.980152
     1   C  -   7   H       0.959187       0.980152

     2   C  -   1   C       0.994147       0.992323
     2   C  -   9   C       0.993133       0.972627
     2   C  -   8   C       0.993133       0.972627
     2   C  -   3   O       0.946037       0.949851

     3   O  -   2   C       0.946037       0.949851
     3   O  -   4   H       0.879073       0.974278
     3   O  -   8   C       0.030708       0.015786
     3   O  -   9   C       0.030708       0.015786

     4   H  -   3   O       0.879073       0.974278

     5   H  -   1   C       0.963982       0.986184

     6   H  -   1   C       0.959187       0.980152

     7   H  -   1   C       0.959187       0.980152

     8   C  -   2   C       0.993133       0.972627
     8   C  -  14   H       0.963165       0.980891
     8   C  -  10   H       0.959773       0.979891
     8   C  -  12   H       0.959155       0.979411
     8   C  -   3   O       0.030708       0.015786

     9   C  -   2   C       0.993133       0.972627
     9   C  -  15   H       0.963165       0.980891
     9   C  -  11   H       0.959773       0.979891
     9   C  -  13   H       0.959155       0.979411
     9   C  -   3   O       0.030708       0.015786

    10   H  -   8   C       0.959773       0.979891

    11   H  -   9   C       0.959773       0.979891

    12   H  -   8   C       0.959155       0.979411

    13   H  -   9   C       0.959155       0.979411

    14   H  -   8   C       0.963165       0.980891

    15   H  -   9   C       0.963165       0.980891


 Valency analysis:

   CEN ATOM   TOT.VALENCE
     1   C       3.941617
     2   C       3.938497
     3   O       1.960427
     4   H       0.900094
     5   H       0.984246
     6   H       0.981888
     7   H       0.981888
     8   C       3.944100
     9   C       3.944100
    10   H       0.981977
    11   H       0.981977
    12   H       0.983466
    13   H       0.983466
    14   H       0.985845
    15   H       0.985845

 Total charge composition:

   CEN ATOM         s          p       ELECTRONS ->P.CHARGE
     1   C       3.02104    3.36637      6.38742   -0.38742
     2   C       2.92362    2.83821      5.76183    0.23817
     3   O       3.63614    4.88449      8.52063   -0.52063
     4   H       0.68392                 0.68392    0.31608
     5   H       0.87448                 0.87448    0.12552
     6   H       0.86542                 0.86542    0.13458
     7   H       0.86542                 0.86542    0.13458
     8   C       3.02795    3.37430      6.40225   -0.40225
     9   C       3.02795    3.37430      6.40225   -0.40225
    10   H       0.86575                 0.86575    0.13425
    11   H       0.86575                 0.86575    0.13425
    12   H       0.87141                 0.87141    0.12859
    13   H       0.87141                 0.87141    0.12859
    14   H       0.88103                 0.88103    0.11897
    15   H       0.88103                 0.88103    0.11897

 Total charge composition, AO contributions:

   CEN ATOM SHL      SPHERICAL COMPONENTS
     1   C  1s       1.99128
     1   C  2s       1.02976
     1   C  2p       1.04287    1.15541    1.16809

     2   C  1s       1.99286
     2   C  2s       0.93076
     2   C  2p       1.01636    0.80551    1.01634

     3   O  1s       1.99718
     3   O  2s       1.63896
     3   O  2p       1.45327    1.48062    1.95060

     4   H  1s       0.68392

     5   H  1s       0.87448

     6   H  1s       0.86542

     7   H  1s       0.86542

     8   C  1s       1.99138
     8   C  2s       1.03657
     8   C  2p       1.13836    1.14019    1.09575

     9   C  1s       1.99138
     9   C  2s       1.03657
     9   C  2p       1.13836    1.14019    1.09575

    10   H  1s       0.86575

    11   H  1s       0.86575

    12   H  1s       0.87141

    13   H  1s       0.87141

    14   H  1s       0.88103

    15   H  1s       0.88103

 Summary of localized orbital composition:   [THRPRINT= 0.020]

   ORB  GRP  ORB.ENERGY      CENTERS/CHARGES
     1   1   -18.607867      O  3   2.000
     2   1    -9.872265      C  2   2.000
     3   1    -9.781199      C  8   2.000
     4   1    -9.781199      C  9   2.000
     5   1    -9.774897      C  1   2.000
     6   1    -0.691524      O  3   1.319   H  4   0.671
     7   1    -0.652448      O  3   1.267   C  2   0.714
     8   1    -0.516136      C  9   1.007   C  2   0.976
     9   1    -0.516136      C  8   1.007   C  2   0.976
    10   1    -0.515302      C  1   0.989   C  2   0.985   (other: 0.026)
    11   1    -0.477572      O  3   1.980   (other: 0.020)
    12   1    -0.451882      C  8   1.124   H 12   0.861
    13   1    -0.451882      C  9   1.124   H 13   0.861
    14   1    -0.451420      C  9   1.114   H 15   0.873
    15   1    -0.451420      C  8   1.114   H 14   0.873
    16   1    -0.447512      C  1   1.119   H  5   0.867
    17   1    -0.445931      C  9   1.132   H 11   0.857
    18   1    -0.445931      C  8   1.132   H 10   0.857
    19   1    -0.440850      C  1   1.131   H  6   0.857
    20   1    -0.440850      C  1   1.131   H  7   0.857
    21   1    -0.239003      O  3   1.951   (other: 0.049)

 Localized orbitals saved to record      2100.2  (orbital set 2)


 **********************************************************************************************************************************
 DATASETS  * FILE   NREC   LENGTH (MB)   RECORD NAMES
              1      20       65.10       500      610      700      900      950      970     1000      129      960     1100   
                                          VAR    BASINP    GEOM    SYMINP    ZMAT    AOBASIS   BASIS     P2S    ABASIS      S 
                                         1400     1410     1200     1210     1080     1600     1650     1300     1700     1800   
                                           T        V       H0       H01     AOSYM     SMH    MOLCAS    ERIS     OPER     GRID   

              2       5        3.24       700     1000      520     1800     2100   
                                         GEOM     BASIS   MCVARS    GRID      RKS  

 PROGRAMS   *        TOTAL      IBBA        KS       INT
 CPU TIMES  *        11.67      0.04      9.85      1.66
 REAL TIME  *        17.44 SEC
 DISK USED  *       165.03 MB      
 **********************************************************************************************************************************
 Molecular orbitals read from record     2100.2  Type=RKS/LOCAL(IBO)  
 Occupation numbers read from record     2100.2  Type=RKS/LOCAL(IBO)  
 Orbital energies read from record       2100.2  Type=RKS/LOCAL(IBO)  
 Redundancy group numbers read from rec  2100.2  Type=RKS/LOCAL(IBO)  

 IBBA/SV(P) energy=      0.000000000000

        KS-SCF  
   -233.36336093
 **********************************************************************************************************************************
 Molpro calculation terminated
