
 Primary working directories    : /tmp/sb13343
 Secondary working directories  : /tmp/sb13343
 Wavefunction directory         : /panfs/panasas01/chem/sb13343/wfu/
 Main file repository           : /tmp/sb13343/

 SHA1      : b4a5b34a9e711420743f49e6833241d17c61fb3c
 NAME      : 2099.9.b4a5b34
 ARCHNAME  : linux/x86_64_openmp
 FC        : /cm/shared/languages/GCC-6.1/bin/gfortran
 BLASLIB   : -lblas
 id        : simonbennie

 Nodes     nprocs
 node32-030    1

 Using customized tuning parameters: mindgm=1; mindgv=20; mindgc=4; mindgr=1; noblas=0; minvec=7
 default implementation of scratch files=df  

 memory,500,m
 geomtyp=xyz
 nosym
 noorient
 geometry={
 H         -1.13405        1.76167        0.00000
 C         -1.32915        0.67205        0.00000
 C         -0.06360       -0.12883        0.00000
 C          0.67426       -0.31636        1.28970
 C          0.67426       -0.31636       -1.28970
 H         -1.94006        0.46750        0.88859
 H         -1.94006        0.46750       -0.88859
 H          1.28359        0.56876        1.55544
 H         -0.01165       -0.48291        2.13019
 H          1.36783       -1.16569        1.24157
 H          1.28359        0.56876       -1.55544
 H         -0.01165       -0.48291       -2.13019
 H          1.36783       -1.16569       -1.24157
 }
 basis={ default,svp }
 {ks,B-LYP,direct;wf,33,1,1}
 {ibba,bonds=1}

 Variables initialized (895), CPU time= 0.00 sec
 Commands  initialized (725), CPU time= 0.01 sec, 591 directives.
 Default parameters read. Elapsed time= 0.08 sec

 Checking input...
 Passed
1


                                         ***  PROGRAM SYSTEM MOLPRO  ***
                                       Copyright, TTI GmbH Stuttgart, 2015
                                    Version 2099.9 linked May 26 2017 16:03:21


 **********************************************************************************************************************************
 LABEL *                                                                                 
  64 bit serial version                                                                  DATE: 08-Jun-17          TIME: 20:32:57  
 **********************************************************************************************************************************

 SHA1:             b4a5b34a9e711420743f49e6833241d17c61fb3c
 **********************************************************************************************************************************
 SETTING GEOMTYP        =    XYZ

 Variable memory set to  500000000 words,  buffer space 

 ZSYMEL=NOSYM

 SETTING BASIS          =    SVP


 Recomputing integrals since basis changed


 Using spherical harmonics

 Library entry H      S def2-SVP             selected for orbital group  1
 Library entry H      P def2-SVP             selected for orbital group  1
 Library entry C      S def2-SVP             selected for orbital group  2
 Library entry C      P def2-SVP             selected for orbital group  2
 Library entry C      D def2-SVP             selected for orbital group  2


 PROGRAM * SEWARD (Integral evaluation for generally contracted gaussian basis sets)     Author: Roland Lindh, 1990

 Geometry written to block  1 of record 700


 Point group  C1  



 ATOMIC COORDINATES

 NR  ATOM    CHARGE       X              Y              Z

   1  H       1.00   -2.143043912    3.329073822    0.000000000
   2  C       6.00   -2.511729478    1.269990442    0.000000000
   3  C       6.00   -0.120186582   -0.243453417    0.000000000
   4  C       6.00    1.274166737   -0.597833757    2.437179783
   5  C       6.00    1.274166737   -0.597833757   -2.437179783
   6  H       1.00   -3.666182065    0.883446963    1.679191737
   7  H       1.00   -3.666182065    0.883446963   -1.679191737
   8  H       1.00    2.425633556    1.074800631    2.939355603
   9  H       1.00   -0.022015309   -0.912567643    4.025475693
  10  H       1.00    2.584824085   -2.202834846    2.346227264
  11  H       1.00    2.425633556    1.074800631   -2.939355603
  12  H       1.00   -0.022015309   -0.912567643   -4.025475693
  13  H       1.00    2.584824085   -2.202834846   -2.346227264

 Bond lengths in Bohr (Angstrom)

 1-2  2.091830159  2-3  2.830192527  2-6  2.074092940  2-7  2.074092940  3-4  2.830132841
     ( 1.106948849)     ( 1.497673388)     ( 1.097562717)     ( 1.097562717)     ( 1.497641803)

  3- 5  2.830132841   4- 8  2.091832255   4- 9  2.074085151   4-10  2.074156104   5-11  2.091832255
       ( 1.497641803)       ( 1.106949959)       ( 1.097558596)       ( 1.097596142)       ( 1.106949959)

  5-12  2.074085151   5-13  2.074156104
       ( 1.097558596)       ( 1.097596142)

 Bond angles

  1-2-3  112.17549786   1-2-6  106.35284965   1-2-7  106.35284965   2-3-4  118.89987932

  2-3-5  118.89987932   3-2-6  111.75744418   3-2-7  111.75744418   3-4-8  112.19808176

  3- 4- 9  111.75014522   3- 4-10  111.74379558   3- 5-11  112.19808176   3- 5-12  111.75014522

  3- 5-13  111.74379558   4- 3- 5  118.89276928   6- 2- 7  108.11431090   8- 4- 9  106.34995457

  8- 4-10  106.34572146   9- 4-10  108.12296896  11- 5-12  106.34995457  11- 5-13  106.34572146

 12- 5-13  108.12296896

 NUCLEAR CHARGE:                   33
 NUMBER OF PRIMITIVE AOS:         163
 NUMBER OF SYMMETRY AOS:          159
 NUMBER OF CONTRACTIONS:          101   ( 101A   )
 NUMBER OF CORE ORBITALS:           4   (   4A   )
 NUMBER OF VALENCE ORBITALS:       25   (  25A   )


 NUCLEAR REPULSION ENERGY  124.92676597


 Eigenvalues of metric

         1 0.371E-02 0.424E-02 0.424E-02 0.242E-01 0.242E-01 0.268E-01 0.277E-01 0.371E-01


 Contracted 2-electron integrals neglected if value below      1.0D-11
 AO integral compression algorithm  1   Integral accuracy      1.0D-11

     53.477 MB (compressed) written to integral file ( 46.4%)


 NUMBER OF SORTED TWO-ELECTRON INTEGRALS:   13268976.     BUFFER LENGTH:  32768
 NUMBER OF SEGMENTS:   1  SEGMENT LENGTH:   13268976      RECORD LENGTH: 524288

 Memory used in sort:      13.83 MW

 SORT1 READ    14422061. AND WROTE    12225547. INTEGRALS IN     35 RECORDS. CPU TIME:     0.19 SEC, REAL TIME:     0.35 SEC
 SORT2 READ    12225547. AND WROTE    13268976. INTEGRALS IN    204 RECORDS. CPU TIME:     0.34 SEC, REAL TIME:     0.43 SEC

 FILE SIZES:   FILE 1:    84.0 MBYTE,  FILE 4:   146.8 MBYTE,   TOTAL:    230.9 MBYTE

 OPERATOR DM      FOR CENTER  0  COORDINATES:    0.000000    0.000000    0.000000


 **********************************************************************************************************************************
 DATASETS  * FILE   NREC   LENGTH (MB)   RECORD NAMES
              1      19       77.16       500      610      700      900      950      970     1000      129      960     1100   
                                          VAR    BASINP    GEOM    SYMINP    ZMAT    AOBASIS   BASIS     P2S    ABASIS      S 
                                         1400     1410     1200     1210     1080     1600     1650     1300     1700   
                                           T        V       H0       H01     AOSYM     SMH    MOLCAS    ERIS     OPER   

 PROGRAMS   *        TOTAL       INT
 CPU TIMES  *         2.46      2.32
 REAL TIME  *         3.19 SEC
 DISK USED  *       231.35 MB      
 **********************************************************************************************************************************

 Density functional group B-LYP=B88+LYP
 Functional: B88(Automatically generated (new) B88)                            Gradient terms: 1
 Functional: LYP(Automatically generated (new) LYP)                            Gradient terms: 1
 Use grid at  1800.2

 Functional: B88                       Factor:  1.0000
 Functional: LYP                       Factor:  1.0000

 Generated new metagrid on record  1800.2 with target accuracy 1.0D-06 and 45406 points in CPU time    1.4
 Computed new grid on record 1800.1 in CPU time    1.5
   84355 words reserved for DFT integration

 PROGRAM * RKS-SCF (Restricted open shell Kohn-Sham)     Authors: W. Meyer, H.-J. Werner, P.J. Knowles, 1993

 NUMBER OF ELECTRONS:      17+   16-    SPACE SYMMETRY=1    SPIN SYMMETRY: Doublet 
 CONVERGENCE THRESHOLDS:    1.00E-05 (Density)    1.00E-06 (Energy)
 MAX. NUMBER OF ITERATIONS:       60
 INTERPOLATION TYPE:            DIIS
 INTERPOLATION STEPS:              2 (START)      1 (STEP)
 LEVEL SHIFTS:                 -0.60 (CLOSED) -0.30 (OPEN) 



 Use fine grid record 1800.2 for energy threshold  1.0D-06
 Orbital guess generated from atomic densities. Full valence occupancy:   17

 Molecular orbital dump at record        2100.2

 Initial alpha occupancy:  17
 Initial beta  occupancy:  16
 Wave function symmetry:    1

 ITERATION    DDIFF          GRAD             ENERGY        2-EL.EN.            DIPOLE MOMENTS         DIIS   ORB.
    1      0.000D+00      0.000D+00      -157.28248362    414.833629    0.13314    0.26914    0.00000    0    start
    2      0.000D+00      0.128D-01      -157.53005128    395.850240    0.01884    0.03834    0.00000    1    diag,B
    3      0.153D-01      0.496D-02      -157.56382245    400.205301    0.04521    0.09152    0.00000    2    diag,B
    4      0.443D-02      0.611D-03      -157.56491575    399.868778    0.03703    0.07498    0.00000    3    diag,B
    5      0.149D-02      0.250D-03      -157.56511658    399.875433    0.03854    0.07803    0.00000    4    diag,B
    6      0.650D-03      0.927D-04      -157.56515247    399.830772    0.03701    0.07492    0.00000    5    diag,B
    7      0.352D-03      0.247D-04      -157.56515622    399.827890    0.03743    0.07576    0.00000    6    fixocc
    8      0.129D-03      0.816D-05      -157.56515667    399.827879    0.03743    0.07576    0.00000    7    diag,B
    9      0.480D-04      0.221D-05      -157.56515670    399.827885    0.03752    0.07594    0.00000    8    diag,B
   10      0.106D-04      0.766D-06      -157.56515670    399.827829    0.03752    0.07594    0.00000    9    orth
   11      0.390D-05      0.126D-06      -157.56515670    399.827822    0.03752    0.07593    0.00000    0    orth

 Final alpha occupancy:  17
 Final beta  occupancy:  16

 !RKS STATE 1.1 Energy               -157.565156701835
 Nuclear energy                       124.92676597
 One-electron energy                 -457.51217226
 Two-electron energy                  199.91391114
 Density functional                   -24.89366155     B88=-23.85874610 LYP= -1.03491545
 Virial quotient                       -1.01240422
 !RKS STATE 1.1 Dipole moment           0.03751660     0.07593424     0.00000000
 Dipole moment /Debye                   0.09535144     0.19299295     0.00000000

 Orbital energies:

         1.1          2.1          3.1          4.1          5.1          6.1          7.1          8.1          9.1         10.1
     -9.914456    -9.913972    -9.913968    -9.913945    -0.700059    -0.605101    -0.605094    -0.457593    -0.380668    -0.380665

        11.1         12.1         13.1         14.1         15.1         16.1         17.1         18.1         19.1
     -0.376884    -0.330257    -0.330225    -0.314124    -0.292875    -0.292870    -0.127362     0.033995     0.082602

 HOMO     17.1    -0.127362 =      -3.4657eV
 LUMO     18.1     0.033995 =       0.9251eV
 LUMO-HOMO         0.161357 =       4.3908eV


 **********************************************************************************************************************************
 DATASETS  * FILE   NREC   LENGTH (MB)   RECORD NAMES
              1      20       78.61       500      610      700      900      950      970     1000      129      960     1100   
                                          VAR    BASINP    GEOM    SYMINP    ZMAT    AOBASIS   BASIS     P2S    ABASIS      S 
                                         1400     1410     1200     1210     1080     1600     1650     1300     1700     1800   
                                           T        V       H0       H01     AOSYM     SMH    MOLCAS    ERIS     OPER     GRID   

              2       5        3.26       700     1000      520     1800     2100   
                                         GEOM     BASIS   MCVARS    GRID      RKS  

 PROGRAMS   *        TOTAL        KS       INT
 CPU TIMES  *        16.42     13.96      2.32
 REAL TIME  *        17.91 SEC
 DISK USED  *       231.35 MB      
 **********************************************************************************************************************************


 PROGRAM * Intrinsic Basis Bonding Analysis (IBBA)          Author: G. Knizia

 Molecular orbitals read from record     2100.2  Type=RKS/CANONICAL (state 1.1)
 Fock matrix read from record            2100.2  Type=RKS/TOTAL (state 1.1)
 Orbital energies read from record       2100.2  Type=RKS/CANONICAL (state 1.1)
 Density matrix read from record         2100.2  Type=RKS/CHARGE (state 1.1)

 Number of core orbitals:           4 (   4 )
 Number of closed-shell orbitals:  12 (  12 )
 Number of active  orbitals:        1 (   1 )

 Basis set MINAO-AUTO-PP generated.      Number of basis functions:   29 

 Polarized AO type:                A = (O Ot + (1-O)(1-Ot)) P12
 Orthogonalization method:         Symmetric (Loewdin)
 Localization functional:          L = sum[A,i] <i|n_A|i>^4 -> max

 Localization group 1:  16 orbitals, occupancy  2.000
 Iterative localization: IB/PM,    7 iter; Final gradient 0.29E-08

 Bond order analysis:       [THRPRINT= 0.020]

   CEN ATOM   CEN ATOM     WIBERG.BO      RENORM.BO
     1   H  -   2   C       0.918335       0.998084
     1   H  -   3   C       0.038340       0.196551

     2   C  -   3   C       1.082731       1.315123
     2   C  -   6   H       0.954773       0.986569
     2   C  -   7   H       0.954773       0.986569
     2   C  -   1   H       0.918335       0.998084

     3   C  -   2   C       1.082731       1.315123
     3   C  -   5   C       1.082716       1.315070
     3   C  -   4   C       1.082716       1.315070
     3   C  -   1   H       0.038340       0.196551
     3   C  -  11   H       0.038311       0.196405
     3   C  -   8   H       0.038311       0.196405

     4   C  -   3   C       1.082716       1.315070
     4   C  -   9   H       0.954806       0.986560
     4   C  -  10   H       0.954722       0.986585
     4   C  -   8   H       0.918358       0.998080

     5   C  -   3   C       1.082716       1.315070
     5   C  -  12   H       0.954806       0.986560
     5   C  -  13   H       0.954722       0.986585
     5   C  -  11   H       0.918358       0.998080

     6   H  -   2   C       0.954773       0.986569

     7   H  -   2   C       0.954773       0.986569

     8   H  -   4   C       0.918358       0.998080
     8   H  -   3   C       0.038311       0.196405

     9   H  -   4   C       0.954806       0.986560

    10   H  -   4   C       0.954722       0.986585

    11   H  -   5   C       0.918358       0.998080
    11   H  -   3   C       0.038311       0.196405

    12   H  -   5   C       0.954806       0.986560

    13   H  -   5   C       0.954722       0.986585


 Valency analysis:

   CEN ATOM   TOT.VALENCE
     1   H       0.969954
     2   C       3.945927
     3   C       3.410187
     4   C       3.945915
     5   C       3.945915
     6   H       0.981031
     7   H       0.981031
     8   H       0.969951
     9   H       0.981042
    10   H       0.981016
    11   H       0.969951
    12   H       0.981042
    13   H       0.981016
 Localization group 2:   1 orbitals, occupancy  1.000
 Iterative localization: IB/PM,    1 iter; Final gradient 0.00E+00

 Bond order analysis:       [THRPRINT= 0.020]

   CEN ATOM   CEN ATOM     WIBERG.BO      RENORM.BO
     1   H  -   3   C       0.082306       0.500000


     3   C  -   1   H       0.082306       0.500000
     3   C  -  11   H       0.082296       0.500000
     3   C  -   8   H       0.082296       0.500000





     8   H  -   3   C       0.082296       0.500000



    11   H  -   3   C       0.082296       0.500000




 Valency analysis:

   CEN ATOM   TOT.VALENCE
     1   H       0.099394
     2   C       0.003221
     3   C       0.337958
     4   C       0.003210
     5   C       0.003210
     6   H       0.017567
     7   H       0.017567
     8   H       0.099383
     9   H       0.017503
    10   H       0.017656
    11   H       0.099383
    12   H       0.017503
    13   H       0.017656

 Total charge composition:

   CEN ATOM         s          p       ELECTRONS ->P.CHARGE
     1   H       0.87911                 0.87911    0.12089
     2   C       3.01293    3.37411      6.38704   -0.38704
     3   C       2.96582    3.00888      5.97469    0.02531
     4   C       3.01293    3.37416      6.38708   -0.38708
     5   C       3.01293    3.37416      6.38708   -0.38708
     6   H       0.87113                 0.87113    0.12887
     7   H       0.87113                 0.87113    0.12887
     8   H       0.87909                 0.87909    0.12091
     9   H       0.87114                 0.87114    0.12886
    10   H       0.87113                 0.87113    0.12887
    11   H       0.87909                 0.87909    0.12091
    12   H       0.87114                 0.87114    0.12886
    13   H       0.87113                 0.87113    0.12887

 Total charge composition, AO contributions:

   CEN ATOM SHL      SPHERICAL COMPONENTS
     1   H  1s       0.87911

     2   C  1s       1.99108
     2   C  2s       1.02185
     2   C  2p       1.09488    1.12193    1.15730

     3   C  1s       1.99279
     3   C  2s       0.97303
     3   C  2p       1.00205    1.00613    1.00070

     4   C  1s       1.99108
     4   C  2s       1.02184
     4   C  2p       1.13380    1.14605    1.09430

     5   C  1s       1.99108
     5   C  2s       1.02184
     5   C  2p       1.13380    1.14605    1.09430

     6   H  1s       0.87113

     7   H  1s       0.87113

     8   H  1s       0.87909

     9   H  1s       0.87114

    10   H  1s       0.87113

    11   H  1s       0.87909

    12   H  1s       0.87114

    13   H  1s       0.87113

 Active orbital charges:

   CEN ATOM         s          p       ELECTRONS ->SPIN.DEN
     1   H       0.05245                 0.05245    0.05245
     2   C       0.00026    0.00135      0.00161    0.00161
     3   C       0.01501    0.76963      0.78464    0.78464
     4   C       0.00026    0.00134      0.00161    0.00161
     5   C       0.00026    0.00134      0.00161    0.00161
     6   H       0.00886                 0.00886    0.00886
     7   H       0.00886                 0.00886    0.00886
     8   H       0.05244                 0.05244    0.05244
     9   H       0.00883                 0.00883    0.00883
    10   H       0.00891                 0.00891    0.00891
    11   H       0.05244                 0.05244    0.05244
    12   H       0.00883                 0.00883    0.00883
    13   H       0.00891                 0.00891    0.00891

 Active orbital charges, AO contributions:

   CEN ATOM SHL      SPHERICAL COMPONENTS
     1   H  1s       0.05245

     2   C  1s       0.00000
     2   C  2s       0.00026
     2   C  2p       0.00001    0.00133    0.00000

     3   C  1s       0.00001
     3   C  2s       0.01500
     3   C  2p       0.15062    0.61901    0.00000

     4   C  1s       0.00000
     4   C  2s       0.00026
     4   C  2p       0.00050    0.00055    0.00029

     5   C  1s       0.00000
     5   C  2s       0.00026
     5   C  2p       0.00050    0.00055    0.00029

     6   H  1s       0.00886

     7   H  1s       0.00886

     8   H  1s       0.05244

     9   H  1s       0.00883

    10   H  1s       0.00891

    11   H  1s       0.05244

    12   H  1s       0.00883

    13   H  1s       0.00891

 Summary of localized orbital composition:   [THRPRINT= 0.020]

   ORB  GRP  ORB.ENERGY      CENTERS/CHARGES
     1   1    -9.822258      C  3   2.000
     2   1    -9.801827      C  2   2.000
     3   1    -9.801823      C  4   2.000
     4   1    -9.801823      C  5   2.000
     5   1    -0.523942      C  4   1.011   C  3   0.975
     6   1    -0.523942      C  5   1.011   C  3   0.975
     7   1    -0.523922      C  2   1.011   C  3   0.975
     8   1    -0.438162      C  2   1.117   H  1   0.823   C  3   0.057
     9   1    -0.438156      C  5   1.117   H 11   0.823   C  3   0.057
    10   1    -0.438156      C  4   1.117   H  8   0.823   C  3   0.057
    11   1    -0.434798      C  5   1.124   H 12   0.856   (other: 0.020)
    12   1    -0.434798      C  4   1.124   H  9   0.856   (other: 0.020)
    13   1    -0.434798      C  2   1.124   H  6   0.856   (other: 0.020)
    14   1    -0.434798      C  2   1.124   H  7   0.856   (other: 0.020)
    15   1    -0.434777      C  5   1.124   H 13   0.855   (other: 0.020)
    16   1    -0.434777      C  4   1.124   H 10   0.855   (other: 0.020)
    17   2    -0.093478      C  3   0.785   H  1   0.052   H 11   0.052   H  8   0.052   (other: 0.058)

 Localized orbitals saved to record      2100.2  (orbital set 2)


 **********************************************************************************************************************************
 DATASETS  * FILE   NREC   LENGTH (MB)   RECORD NAMES
              1      20       78.61       500      610      700      900      950      970     1000      129      960     1100   
                                          VAR    BASINP    GEOM    SYMINP    ZMAT    AOBASIS   BASIS     P2S    ABASIS      S 
                                         1400     1410     1200     1210     1080     1600     1650     1300     1700     1800   
                                           T        V       H0       H01     AOSYM     SMH    MOLCAS    ERIS     OPER     GRID   

              2       5        3.34       700     1000      520     1800     2100   
                                         GEOM     BASIS   MCVARS    GRID      RKS  

 PROGRAMS   *        TOTAL      IBBA        KS       INT
 CPU TIMES  *        16.46      0.04     13.96      2.32
 REAL TIME  *        18.08 SEC
 DISK USED  *       231.35 MB      
 **********************************************************************************************************************************
 Molecular orbitals read from record     2100.2  Type=RKS/LOCAL(IBO)  
 Occupation numbers read from record     2100.2  Type=RKS/LOCAL(IBO)  
 Orbital energies read from record       2100.2  Type=RKS/LOCAL(IBO)  
 Redundancy group numbers read from rec  2100.2  Type=RKS/LOCAL(IBO)  

 IBBA/SVP energy=      0.000000000000

        KS-SCF  
   -157.56515670
 **********************************************************************************************************************************
 Molpro calculation terminated
