
 Primary working directories    : /tmp/sb13343
 Secondary working directories  : /tmp/sb13343
 Wavefunction directory         : /panfs/panasas01/chem/sb13343/wfu/
 Main file repository           : /tmp/sb13343/

 SHA1      : b4a5b34a9e711420743f49e6833241d17c61fb3c
 NAME      : 2099.9.b4a5b34
 ARCHNAME  : linux/x86_64_openmp
 FC        : /cm/shared/languages/GCC-6.1/bin/gfortran
 BLASLIB   : -lblas
 id        : simonbennie

 Nodes     nprocs
 node32-028    1

 Using customized tuning parameters: mindgm=1; mindgv=20; mindgc=4; mindgr=1; noblas=0; minvec=7
 default implementation of scratch files=df  

 memory,500,m
 geomtyp=xyz
 nosym
 noorient
 geometry={
 H         -1.13405        1.76167        0.00000
 C         -1.32915        0.67205        0.00000
 C         -0.06360       -0.12883        0.00000
 C          0.67426       -0.31636        1.28970
 C          0.67426       -0.31636       -1.28970
 H         -1.94006        0.46750        0.88859
 H         -1.94006        0.46750       -0.88859
 H          1.28359        0.56876        1.55544
 H         -0.01165       -0.48291        2.13019
 H          1.36783       -1.16569        1.24157
 H          1.28359        0.56876       -1.55544
 H         -0.01165       -0.48291       -2.13019
 H          1.36783       -1.16569       -1.24157
 }
 basis={ default,sto-3g }
 {uks,LDA,direct;wf,33,1,1}
 {ibba,bonds=1}

 Variables initialized (895), CPU time= 0.00 sec
 Commands  initialized (725), CPU time= 0.01 sec, 591 directives.
 Default parameters read. Elapsed time= 0.08 sec

 Checking input...
 Passed
1


                                         ***  PROGRAM SYSTEM MOLPRO  ***
                                       Copyright, TTI GmbH Stuttgart, 2015
                                    Version 2099.9 linked May 26 2017 16:03:21


 **********************************************************************************************************************************
 LABEL *                                                                                 
  64 bit serial version                                                                  DATE: 08-Jun-17          TIME: 20:21:13  
 **********************************************************************************************************************************

 SHA1:             b4a5b34a9e711420743f49e6833241d17c61fb3c
 **********************************************************************************************************************************
 SETTING GEOMTYP        =    XYZ

 Variable memory set to  500000000 words,  buffer space 

 ZSYMEL=NOSYM

 SETTING BASIS          =    STO-3G


 Recomputing integrals since basis changed


 Using spherical harmonics

 Library entry H      S STO-3G               selected for orbital group  1
 Library entry C      S STO-3G               selected for orbital group  2
 Library entry C      P STO-3G               selected for orbital group  2


 PROGRAM * SEWARD (Integral evaluation for generally contracted gaussian basis sets)     Author: Roland Lindh, 1990

 Geometry written to block  1 of record 700


 Point group  C1  



 ATOMIC COORDINATES

 NR  ATOM    CHARGE       X              Y              Z

   1  H       1.00   -2.143043912    3.329073822    0.000000000
   2  C       6.00   -2.511729478    1.269990442    0.000000000
   3  C       6.00   -0.120186582   -0.243453417    0.000000000
   4  C       6.00    1.274166737   -0.597833757    2.437179783
   5  C       6.00    1.274166737   -0.597833757   -2.437179783
   6  H       1.00   -3.666182065    0.883446963    1.679191737
   7  H       1.00   -3.666182065    0.883446963   -1.679191737
   8  H       1.00    2.425633556    1.074800631    2.939355603
   9  H       1.00   -0.022015309   -0.912567643    4.025475693
  10  H       1.00    2.584824085   -2.202834846    2.346227264
  11  H       1.00    2.425633556    1.074800631   -2.939355603
  12  H       1.00   -0.022015309   -0.912567643   -4.025475693
  13  H       1.00    2.584824085   -2.202834846   -2.346227264

 Bond lengths in Bohr (Angstrom)

 1-2  2.091830159  2-3  2.830192527  2-6  2.074092940  2-7  2.074092940  3-4  2.830132841
     ( 1.106948849)     ( 1.497673388)     ( 1.097562717)     ( 1.097562717)     ( 1.497641803)

  3- 5  2.830132841   4- 8  2.091832255   4- 9  2.074085151   4-10  2.074156104   5-11  2.091832255
       ( 1.497641803)       ( 1.106949959)       ( 1.097558596)       ( 1.097596142)       ( 1.106949959)

  5-12  2.074085151   5-13  2.074156104
       ( 1.097558596)       ( 1.097596142)

 Bond angles

  1-2-3  112.17549786   1-2-6  106.35284965   1-2-7  106.35284965   2-3-4  118.89987932

  2-3-5  118.89987932   3-2-6  111.75744418   3-2-7  111.75744418   3-4-8  112.19808176

  3- 4- 9  111.75014522   3- 4-10  111.74379558   3- 5-11  112.19808176   3- 5-12  111.75014522

  3- 5-13  111.74379558   4- 3- 5  118.89276928   6- 2- 7  108.11431090   8- 4- 9  106.34995457

  8- 4-10  106.34572146   9- 4-10  108.12296896  11- 5-12  106.34995457  11- 5-13  106.34572146

 12- 5-13  108.12296896

 NUCLEAR CHARGE:                   33
 NUMBER OF PRIMITIVE AOS:          87
 NUMBER OF SYMMETRY AOS:           87
 NUMBER OF CONTRACTIONS:           29   (  29A   )
 NUMBER OF CORE ORBITALS:           4   (   4A   )
 NUMBER OF VALENCE ORBITALS:       25   (  25A   )


 NUCLEAR REPULSION ENERGY  124.92676597


 Eigenvalues of metric

         1 0.210E+00 0.225E+00 0.225E+00 0.315E+00 0.353E+00 0.353E+00 0.362E+00 0.372E+00


 Contracted 2-electron integrals neglected if value below      1.0D-11
 AO integral compression algorithm  1   Integral accuracy      1.0D-11

     0.786 MB (compressed) written to integral file (100.0%)


 NUMBER OF SORTED TWO-ELECTRON INTEGRALS:      94830.     BUFFER LENGTH:  32768
 NUMBER OF SEGMENTS:   1  SEGMENT LENGTH:      94830      RECORD LENGTH: 524288

 Memory used in sort:       0.65 MW

 SORT1 READ      108770. AND WROTE       91348. INTEGRALS IN      1 RECORDS. CPU TIME:     0.01 SEC, REAL TIME:     0.01 SEC
 SORT2 READ       91348. AND WROTE       94830. INTEGRALS IN      3 RECORDS. CPU TIME:     0.01 SEC, REAL TIME:     0.02 SEC

 FILE SIZES:   FILE 1:    31.0 MBYTE,  FILE 4:     4.2 MBYTE,   TOTAL:     35.2 MBYTE

 OPERATOR DM      FOR CENTER  0  COORDINATES:    0.000000    0.000000    0.000000


 **********************************************************************************************************************************
 DATASETS  * FILE   NREC   LENGTH (MB)   RECORD NAMES
              1      19       30.62       500      610      700      900      950      970     1000      129      960     1100   
                                          VAR    BASINP    GEOM    SYMINP    ZMAT    AOBASIS   BASIS     P2S    ABASIS      S 
                                         1400     1410     1200     1210     1080     1600     1650     1300     1700   
                                           T        V       H0       H01     AOSYM     SMH    MOLCAS    ERIS     OPER   

 PROGRAMS   *        TOTAL       INT
 CPU TIMES  *         0.51      0.36
 REAL TIME  *         0.81 SEC
 DISK USED  *        35.68 MB      
 **********************************************************************************************************************************

 Density functional group LDA=DIRAC+VWN5
 Functional: DIRAC(Automatically generated (new) DIRAC)                        Gradient terms: 0
 Functional: VWN5(Automatically generated (new) VWN5)                          Gradient terms: 0
 Use grid at  1800.2

 Functional: DIRAC                     Factor:  1.0000
 Functional: VWN5                      Factor:  1.0000

 Generated new metagrid on record  1800.2 with target accuracy 1.0D-06 and 45406 points in CPU time    1.4
 Computed new grid on record 1800.1 in CPU time    1.6
   16410 words reserved for DFT integration

 PROGRAM * UKS-SCF (Unrestricted Kohn-Sham)     Authors: W. Meyer, H.-J. Werner, P.J. Knowles, 1993

 NUMBER OF ELECTRONS:      17+   16-    SPACE SYMMETRY=1    SPIN SYMMETRY: Doublet 
 CONVERGENCE THRESHOLDS:    1.00E-05 (Density)    1.00E-06 (Energy)
 MAX. NUMBER OF ITERATIONS:       60
 INTERPOLATION TYPE:            DIIS
 INTERPOLATION STEPS:              2 (START)      1 (STEP)
 LEVEL SHIFTS:                 -0.20 (ALPHA)  -0.20 (BETA) 



 Use fine grid record 1800.2 for energy threshold  1.0D-06
 Orbital guess generated from atomic densities. Full valence occupancy:   17

 Molecular orbital dump at record        2200.2

 Initial alpha occupation  17
 Initial beta  occupation  16

 ITERATION    DDIFF          GRAD             ENERGY        2-EL.EN.            DIPOLE MOMENTS         DIIS
    1      0.000D+00      0.000D+00      -154.06471621    414.573558    0.22230    0.44952   -0.00000    0
    2      0.682D-01      0.227D-01      -154.35843828    399.493077    0.03445    0.06972   -0.00000    1
    3      0.126D-01      0.531D-02      -154.37375355    402.032235    0.05349    0.10824   -0.00000    2
    4      0.157D-02      0.795D-03      -154.37449020    402.006794    0.05178    0.10479   -0.00000    3
    5      0.779D-03      0.438D-03      -154.37469308    402.008142    0.04935    0.09988   -0.00000    4
    6      0.340D-03      0.113D-03      -154.37471375    402.002077    0.04887    0.09891   -0.00000    5
    7      0.431D-04      0.140D-04      -154.37471403    402.001785    0.04882    0.09881   -0.00000    6
    8      0.629D-05      0.208D-05      -154.37471404    402.001841    0.04883    0.09883   -0.00000    5
    9      0.894D-06      0.477D-06      -154.37471404    402.001742    0.04882    0.09881   -0.00000    5

 Final alpha occupancy:  17
 Final beta  occupancy:  16

 !UKS STATE 1.1 Energy               -154.374714035542
 Nuclear energy                       124.92676597
 One-electron energy                 -456.74400015
 Two-electron energy                  201.00087107
 Density functional                   -23.55835093     DIRAC=-21.52125166 VWN5= -2.03709927
 Virial quotient                       -1.00728212
 !UKS STATE 1.1 Dipole moment           0.04882442     0.09881397    -0.00000000
 Dipole moment /Debye                   0.12409118     0.25114360    -0.00000000

 Orbital energies for positive spin:

         1.1          2.1          3.1          4.1          5.1          6.1          7.1          8.1          9.1         10.1
     -9.576308    -9.576224    -9.576220    -9.563239    -0.667644    -0.570511    -0.570503    -0.425318    -0.342226    -0.341751

        11.1         12.1         13.1         14.1         15.1         16.1         17.1         18.1         19.1
     -0.341751    -0.289870    -0.289837    -0.271464    -0.244049    -0.244045    -0.041822     0.349567     0.349577

 Orbital energies for negative spin:

         1.1          2.1          3.1          4.1          5.1          6.1          7.1          8.1          9.1         10.1
     -9.577035    -9.577030    -9.577028    -9.547481    -0.653001    -0.567462    -0.567455    -0.409862    -0.337094    -0.337091

        11.1         12.1         13.1         14.1         15.1         16.1         17.1         18.1         19.1
     -0.329970    -0.286194    -0.286161    -0.270741    -0.236104    -0.236097     0.032490     0.355334     0.355343

 HOMO     17.1    -0.041822 =      -1.1380eV
 LUMO    -17.1     0.032490 =       0.8841eV
 LUMO-HOMO         0.074312 =       2.0221eV

 EXPECTATION VALUE OF S**2:             0.75246423

 Occupation number threshold for canonical orbitals:  1.999000 (occupied),  0.001000 (virtual)

 Number of pseudo-canonical orbitals per symmetry:   16
 Number of active natural orbitals per symmetry:      1

 Natural orbitals saved to record    2200.2 (Orbital set 3)

 Orbital spaces for UNO-CAS (Min. occupation: 0.020  Max. occupation: 1.980):

 Closed:       16
 Active:        1


 **********************************************************************************************************************************
 DATASETS  * FILE   NREC   LENGTH (MB)   RECORD NAMES
              1      20       32.07       500      610      700      900      950      970     1000      129      960     1100   
                                          VAR    BASINP    GEOM    SYMINP    ZMAT    AOBASIS   BASIS     P2S    ABASIS      S 
                                         1400     1410     1200     1210     1080     1600     1650     1300     1700     1800   
                                           T        V       H0       H01     AOSYM     SMH    MOLCAS    ERIS     OPER     GRID   

              2       5        3.00       700     1000      520     1800     2200   
                                         GEOM     BASIS   MCVARS    GRID      UKS  

 PROGRAMS   *        TOTAL       UKS       INT
 CPU TIMES  *         4.11      3.60      0.36
 REAL TIME  *         4.56 SEC
 DISK USED  *        35.68 MB      
 **********************************************************************************************************************************


 PROGRAM * Intrinsic Basis Bonding Analysis (IBBA)          Author: G. Knizia

 Molecular orbitals read from record     2200.2  Type=UKS/ALPHA (state 1.1)
 Fock matrix read from record            2200.2  Type=UKS/TOTAL (state 1.1)
 Orbital energies read from record       2200.2  Type=UKS/ALPHA (state 1.1)
 Density matrix read from record         2200.2  Type=UKS/CHARGE (state 1.1)

 Number of core orbitals:           4 (   4 )
 Number of closed-shell orbitals:  12 (  12 )
 Number of active  orbitals:        1 (   1 )

 Basis set MINAO-AUTO-PP generated.      Number of basis functions:   29 

 Polarized AO type:                A = (O Ot + (1-O)(1-Ot)) P12
 Orthogonalization method:         Symmetric (Loewdin)
 Localization functional:          L = sum[A,i] <i|n_A|i>^4 -> max

 Localization group 1:  16 orbitals, occupancy  2.000
 Iterative localization: IB/PM,    7 iter; Final gradient 0.50E-08

 Bond order analysis:       [THRPRINT= 0.020]

   CEN ATOM   CEN ATOM     WIBERG.BO      RENORM.BO
     1   H  -   2   C       0.894043       0.997085
     1   H  -   3   C       0.045147       0.180335

     2   C  -   3   C       1.107683       1.310002
     2   C  -   7   H       0.946988       0.989404
     2   C  -   6   H       0.946988       0.989404
     2   C  -   1   H       0.894043       0.997085

     3   C  -   2   C       1.107683       1.310002
     3   C  -   5   C       1.107670       1.309967
     3   C  -   4   C       1.107670       1.309967
     3   C  -   1   H       0.045147       0.180335
     3   C  -  11   H       0.045117       0.180211
     3   C  -   8   H       0.045117       0.180211

     4   C  -   3   C       1.107670       1.309967
     4   C  -   9   H       0.947036       0.989397
     4   C  -  10   H       0.946917       0.989416
     4   C  -   8   H       0.894076       0.997080

     5   C  -   3   C       1.107670       1.309967
     5   C  -  12   H       0.947036       0.989397
     5   C  -  13   H       0.946917       0.989416
     5   C  -  11   H       0.894076       0.997080

     6   H  -   2   C       0.946988       0.989404

     7   H  -   2   C       0.946988       0.989404

     8   H  -   4   C       0.894076       0.997080
     8   H  -   3   C       0.045117       0.180211

     9   H  -   4   C       0.947036       0.989397

    10   H  -   4   C       0.946917       0.989416

    11   H  -   5   C       0.894076       0.997080
    11   H  -   3   C       0.045117       0.180211

    12   H  -   5   C       0.947036       0.989397

    13   H  -   5   C       0.946917       0.989416


 Valency analysis:

   CEN ATOM   TOT.VALENCE
     1   H       0.962404
     2   C       3.930004
     3   C       3.516073
     4   C       3.930001
     5   C       3.930001
     6   H       0.975834
     7   H       0.975834
     8   H       0.962409
     9   H       0.975848
    10   H       0.975818
    11   H       0.962409
    12   H       0.975848
    13   H       0.975818
 Localization group 2:   1 orbitals, occupancy  1.000
 Iterative localization: IB/PM,    1 iter; Final gradient 0.00E+00

 Bond order analysis:       [THRPRINT= 0.020]

   CEN ATOM   CEN ATOM     WIBERG.BO      RENORM.BO
     1   H  -   3   C       0.075889       0.500000


     3   C  -   1   H       0.075889       0.500000
     3   C  -  11   H       0.075884       0.500000
     3   C  -   8   H       0.075884       0.500000





     8   H  -   3   C       0.075884       0.500000



    11   H  -   3   C       0.075884       0.500000




 Valency analysis:

   CEN ATOM   TOT.VALENCE
     1   H       0.093949
     2   C       0.015715
     3   C       0.356511
     4   C       0.015691
     5   C       0.015691
     6   H       0.019847
     7   H       0.019847
     8   H       0.093943
     9   H       0.019775
    10   H       0.019944
    11   H       0.093943
    12   H       0.019775
    13   H       0.019944

 Total charge composition:

   CEN ATOM         s          p       ELECTRONS ->P.CHARGE
     1   H       0.85552                 0.85552    0.14448
     2   C       2.98385    3.41416      6.39801   -0.39801
     3   C       2.99809    3.11386      6.11196   -0.11196
     4   C       2.98384    3.41417      6.39801   -0.39801
     5   C       2.98384    3.41417      6.39801   -0.39801
     6   H       0.85457                 0.85457    0.14543
     7   H       0.85457                 0.85457    0.14543
     8   H       0.85553                 0.85553    0.14447
     9   H       0.85458                 0.85458    0.14542
    10   H       0.85457                 0.85457    0.14543
    11   H       0.85553                 0.85553    0.14447
    12   H       0.85458                 0.85458    0.14542
    13   H       0.85457                 0.85457    0.14543

 Total charge composition, AO contributions:

   CEN ATOM SHL      SPHERICAL COMPONENTS
     1   H  1s       0.85552

     2   C  1s       1.99269
     2   C  2s       0.99116
     2   C  2p       1.09835    1.13182    1.18399

     3   C  1s       1.99390
     3   C  2s       1.00419
     3   C  2p       1.03287    1.05539    1.02561

     4   C  1s       1.99269
     4   C  2s       0.99115
     4   C  2p       1.15034    1.16707    1.09676

     5   C  1s       1.99269
     5   C  2s       0.99115
     5   C  2p       1.15034    1.16707    1.09676

     6   H  1s       0.85457

     7   H  1s       0.85457

     8   H  1s       0.85553

     9   H  1s       0.85458

    10   H  1s       0.85457

    11   H  1s       0.85553

    12   H  1s       0.85458

    13   H  1s       0.85457

 Active orbital charges:

   CEN ATOM         s          p       ELECTRONS ->SPIN.DEN
     1   H       0.04942                 0.04942    0.04942
     2   C       0.00015    0.00777      0.00792    0.00792
     3   C       0.01200    0.75585      0.76785    0.76785
     4   C       0.00015    0.00776      0.00791    0.00791
     5   C       0.00015    0.00776      0.00791    0.00791
     6   H       0.01002                 0.01002    0.01002
     7   H       0.01002                 0.01002    0.01002
     8   H       0.04941                 0.04941    0.04941
     9   H       0.00999                 0.00999    0.00999
    10   H       0.01007                 0.01007    0.01007
    11   H       0.04941                 0.04941    0.04941
    12   H       0.00999                 0.00999    0.00999
    13   H       0.01007                 0.01007    0.01007

 Active orbital charges, AO contributions:

   CEN ATOM SHL      SPHERICAL COMPONENTS
     1   H  1s       0.04942

     2   C  1s       0.00000
     2   C  2s       0.00015
     2   C  2p       0.00022    0.00755    0.00000

     3   C  1s       0.00001
     3   C  2s       0.01199
     3   C  2p       0.14792    0.60793    0.00000

     4   C  1s       0.00000
     4   C  2s       0.00015
     4   C  2p       0.00236    0.00492    0.00047

     5   C  1s       0.00000
     5   C  2s       0.00015
     5   C  2p       0.00236    0.00492    0.00047

     6   H  1s       0.01002

     7   H  1s       0.01002

     8   H  1s       0.04941

     9   H  1s       0.00999

    10   H  1s       0.01007

    11   H  1s       0.04941

    12   H  1s       0.00999

    13   H  1s       0.01007

 Summary of localized orbital composition:   [THRPRINT= 0.020]

   ORB  GRP  ORB.ENERGY      CENTERS/CHARGES
     1   1    -9.468736      C  2   2.000
     2   1    -9.468732      C  4   2.000
     3   1    -9.468732      C  5   2.000
     4   1    -9.460652      C  3   2.000
     5   1    -0.470948      C  3   1.004   C  5   0.982
     6   1    -0.470948      C  3   1.004   C  4   0.982
     7   1    -0.470926      C  3   1.004   C  2   0.982
     8   1    -0.399014      C  2   1.120   H  1   0.799   C  3   0.075
     9   1    -0.399010      C  4   1.120   H  8   0.799   C  3   0.075
    10   1    -0.399010      C  5   1.120   H 11   0.799   C  3   0.075
    11   1    -0.394113      C  2   1.140   H  7   0.837   (other: 0.023)
    12   1    -0.394113      C  2   1.140   H  6   0.837   (other: 0.023)
    13   1    -0.394111      C  4   1.140   H  9   0.837   (other: 0.023)
    14   1    -0.394111      C  5   1.140   H 12   0.837   (other: 0.023)
    15   1    -0.394091      C  4   1.140   H 10   0.837   (other: 0.023)
    16   1    -0.394091      C  5   1.140   H 13   0.837   (other: 0.023)
    17   2    -0.005164      C  3   0.768   H  1   0.049   H 11   0.049   H  8   0.049   (other: 0.084)

 Localized orbitals saved to record      2200.2  (orbital set 4)


 **********************************************************************************************************************************
 DATASETS  * FILE   NREC   LENGTH (MB)   RECORD NAMES
              1      20       32.07       500      610      700      900      950      970     1000      129      960     1100   
                                          VAR    BASINP    GEOM    SYMINP    ZMAT    AOBASIS   BASIS     P2S    ABASIS      S 
                                         1400     1410     1200     1210     1080     1600     1650     1300     1700     1800   
                                           T        V       H0       H01     AOSYM     SMH    MOLCAS    ERIS     OPER     GRID   

              2       5        3.01       700     1000      520     1800     2200   
                                         GEOM     BASIS   MCVARS    GRID      UKS  

 PROGRAMS   *        TOTAL      IBBA       UKS       INT
 CPU TIMES  *         4.14      0.01      3.60      0.36
 REAL TIME  *         4.67 SEC
 DISK USED  *        35.68 MB      
 **********************************************************************************************************************************
 Molecular orbitals read from record     2200.2  Type=UKS/LOCAL(IBO)  
 Occupation numbers read from record     2200.2  Type=UKS/LOCAL(IBO)  
 Orbital energies read from record       2200.2  Type=UKS/LOCAL(IBO)  
 Redundancy group numbers read from rec  2200.2  Type=UKS/BETA (state 1.1)

 IBBA/STO-3G energy=      0.000000000000

        UKS-SCF 
   -154.37471404
 **********************************************************************************************************************************
 Molpro calculation terminated
