
 Primary working directories    : /tmp/sb13343
 Secondary working directories  : /tmp/sb13343
 Wavefunction directory         : /panfs/panasas01/chem/sb13343/wfu/
 Main file repository           : /tmp/sb13343/

 SHA1      : b4a5b34a9e711420743f49e6833241d17c61fb3c
 NAME      : 2099.9.b4a5b34
 ARCHNAME  : linux/x86_64_openmp
 FC        : /cm/shared/languages/GCC-6.1/bin/gfortran
 BLASLIB   : -lblas
 id        : simonbennie

 Nodes     nprocs
 node35-048    1

 Using customized tuning parameters: mindgm=1; mindgv=20; mindgc=4; mindgr=1; noblas=0; minvec=7
 default implementation of scratch files=df  

 memory,500,m
 geomtyp=xyz
 nosym
 noorient
 geometry={
 C         -1.53233        0.02247        0.00000
 C         -0.00192        0.01421        0.00000
 O          0.37239        1.40356        0.00000
 H          1.34248        1.44036        0.00000
 H         -1.92991       -0.99819        0.00000
 H         -1.90797        0.54382       -0.88653
 H         -1.90797        0.54382        0.88653
 C          0.54303       -0.66466       -1.26580
 C          0.54303       -0.66466        1.26580
 H          0.17836       -0.14752       -2.15943
 H          0.17836       -0.14752        2.15943
 H          0.23752       -1.71600       -1.32280
 H          0.23752       -1.71600        1.32280
 H          1.64084       -0.63767       -1.28032
 H          1.64084       -0.63767        1.28032
 }
 basis={ default,svp }
 {ks,PBE0,direct;wf,42,1,0}
 {ibba,bonds=1}

 Variables initialized (895), CPU time= 0.00 sec
 Commands  initialized (725), CPU time= 0.02 sec, 591 directives.
 Default parameters read. Elapsed time= 0.08 sec

 Checking input...
 Passed
1


                                         ***  PROGRAM SYSTEM MOLPRO  ***
                                       Copyright, TTI GmbH Stuttgart, 2015
                                    Version 2099.9 linked May 26 2017 16:03:21


 **********************************************************************************************************************************
 LABEL *                                                                                 
  64 bit serial version                                                                  DATE: 09-Jun-17          TIME: 03:41:54  
 **********************************************************************************************************************************

 SHA1:             b4a5b34a9e711420743f49e6833241d17c61fb3c
 **********************************************************************************************************************************
 SETTING GEOMTYP        =    XYZ

 Variable memory set to  500000000 words,  buffer space 

 ZSYMEL=NOSYM

 SETTING BASIS          =    SVP


 Recomputing integrals since basis changed


 Using spherical harmonics

 Library entry C      S def2-SVP             selected for orbital group  1
 Library entry C      P def2-SVP             selected for orbital group  1
 Library entry C      D def2-SVP             selected for orbital group  1
 Library entry O      S def2-SVP             selected for orbital group  2
 Library entry O      P def2-SVP             selected for orbital group  2
 Library entry O      D def2-SVP             selected for orbital group  2
 Library entry H      S def2-SVP             selected for orbital group  3
 Library entry H      P def2-SVP             selected for orbital group  3


 PROGRAM * SEWARD (Integral evaluation for generally contracted gaussian basis sets)     Author: Roland Lindh, 1990

 Geometry written to block  1 of record 700


 Point group  C1  



 ATOMIC COORDINATES

 NR  ATOM    CHARGE       X              Y              Z

   1  C       6.00   -2.895684032    0.042462146    0.000000000
   2  C       6.00   -0.003628274    0.026853008    0.000000000
   3  O       8.00    0.703715112    2.652343999    0.000000000
   4  H       1.00    2.536919528    2.721885921    0.000000000
   5  H       1.00   -3.647001345   -1.886305720    0.000000000
   6  H       1.00   -3.605540754    1.027670861   -1.675298901
   7  H       1.00   -3.605540754    1.027670861    1.675298901
   8  C       6.00    1.026177977   -1.256025366   -2.392015328
   9  C       6.00    1.026177977   -1.256025366    2.392015328
  10  H       1.00    0.337051552   -0.278772398   -4.080731285
  11  H       1.00    0.337051552   -0.278772398    4.080731285
  12  H       1.00    0.448847749   -3.242770030   -2.499729718
  13  H       1.00    0.448847749   -3.242770030    2.499729718
  14  H       1.00    3.100738214   -1.205021658   -2.419454152
  15  H       1.00    3.100738214   -1.205021658    2.419454152

 Bond lengths in Bohr (Angstrom)

 1-2  2.892097881  1-5  2.069933136  1-6  2.069096224  1-7  2.069096224  2-3  2.719106031
     ( 1.530432290)     ( 1.095361444)     ( 1.094918569)     ( 1.094918569)     ( 1.438888946)

  2- 8  2.903104402   2- 9  2.903104402   3- 4  1.834522965   8-10  2.069222119   8-12  2.071730422
       ( 1.536256691)       ( 1.536256691)       ( 0.970787746)       ( 1.094985190)       ( 1.096312526)

  8-14  2.075368508   9-11  2.069222119   9-13  2.071730422   9-15  2.075368508
       ( 1.098237719)       ( 1.094985190)       ( 1.096312526)       ( 1.098237719)

 Bond angles

  1-2-3  104.76902697   1-2-8  110.92255387   1-2-9  110.92255387   2-1-5  110.97328220

  2- 1- 6  110.22090701   2- 1- 7  110.22090701   2- 3- 4  107.25071562   2- 8-10  110.21836376

  2- 8-12  111.57747468   2- 8-14  110.77023896   2- 9-11  110.21836376   2- 9-13  111.57747468

  2- 9-15  110.77023896   3- 2- 8  109.53648747   3- 2- 9  109.53648747   5- 1- 6  108.61190457

  5- 1- 7  108.61190457   6- 1- 7  108.12870271   8- 2- 9  110.96453384  10- 8-12  108.52192632

 10- 8-14  108.08997829  11- 9-13  108.52192632  11- 9-15  108.08997829  12- 8-14  107.54424578

 13- 9-15  107.54424578

 NUCLEAR CHARGE:                   42
 NUMBER OF PRIMITIVE AOS:         195
 NUMBER OF SYMMETRY AOS:          190
 NUMBER OF CONTRACTIONS:          120   ( 120A   )
 NUMBER OF CORE ORBITALS:           5   (   5A   )
 NUMBER OF VALENCE ORBITALS:       30   (  30A   )


 NUCLEAR REPULSION ENERGY  198.77359127


 Eigenvalues of metric

         1 0.176E-02 0.546E-02 0.548E-02 0.123E-01 0.248E-01 0.256E-01 0.256E-01 0.275E-01


 Contracted 2-electron integrals neglected if value below      1.0D-11
 AO integral compression algorithm  1   Integral accuracy      1.0D-11

     101.974 MB (compressed) written to integral file ( 44.9%)


 NUMBER OF SORTED TWO-ELECTRON INTEGRALS:   26357430.     BUFFER LENGTH:  32768
 NUMBER OF SEGMENTS:   2  SEGMENT LENGTH:   15997996      RECORD LENGTH: 524288

 Memory used in sort:      16.56 MW

 SORT1 READ    28411733. AND WROTE    24096425. INTEGRALS IN     70 RECORDS. CPU TIME:     0.39 SEC, REAL TIME:     0.79 SEC
 SORT2 READ    24096425. AND WROTE    26357430. INTEGRALS IN    389 RECORDS. CPU TIME:     0.60 SEC, REAL TIME:     6.41 SEC

 FILE SIZES:   FILE 1:   132.7 MBYTE,  FILE 4:   293.6 MBYTE,   TOTAL:    426.4 MBYTE

 OPERATOR DM      FOR CENTER  0  COORDINATES:    0.000000    0.000000    0.000000


 **********************************************************************************************************************************
 DATASETS  * FILE   NREC   LENGTH (MB)   RECORD NAMES
              1      19      120.44       500      610      700      900      950      970     1000      129      960     1100   
                                          VAR    BASINP    GEOM    SYMINP    ZMAT    AOBASIS   BASIS     P2S    ABASIS      S 
                                         1400     1410     1200     1210     1080     1600     1650     1300     1700   
                                           T        V       H0       H01     AOSYM     SMH    MOLCAS    ERIS     OPER   

 PROGRAMS   *        TOTAL       INT
 CPU TIMES  *         4.17      4.02
 REAL TIME  *        11.97 SEC
 DISK USED  *       426.89 MB      
 **********************************************************************************************************************************

 Density functional group PBE0=PBEX+PBEC
 Functional: PBEX(Automatically generated (new) PBEX)                          Gradient terms: 1
 Functional: PBEC(Automatically generated (new) PBEC)                          Gradient terms: 1
 Use grid at  1800.2


 Exact exchange will be calculated, factor:  0.2500

 Functional: PBEX                      Factor:  0.7500
 Functional: PBEC                      Factor:  1.0000

 Generated new metagrid on record  1800.2 with target accuracy 1.0D-06 and 53396 points in CPU time    1.6
 Computed new grid on record 1800.1 in CPU time    1.8
   99539 words reserved for DFT integration

 PROGRAM * RKS-SCF (Restricted closed shell Kohn-Sham)     Authors: W. Meyer, H.-J. Werner, P.J. Knowles, 1993

 NUMBER OF ELECTRONS:      21+   21-    SPACE SYMMETRY=1    SPIN SYMMETRY: Singlet 
 CONVERGENCE THRESHOLDS:    1.00E-05 (Density)    1.00E-06 (Energy)
 MAX. NUMBER OF ITERATIONS:       60
 INTERPOLATION TYPE:            DIIS
 INTERPOLATION STEPS:              2 (START)      1 (STEP)
 LEVEL SHIFTS:                  0.00 (CLOSED)  0.00 (OPEN) 



 Use fine grid record 1800.2 for energy threshold  1.0D-06
 Orbital guess generated from atomic densities. Full valence occupancy:   21

 Molecular orbital dump at record        2100.2

 Initial occupancy:  21

 ITERATION    DDIFF          GRAD             ENERGY        2-EL.EN.            DIPOLE MOMENTS         DIIS   ORB.
    1      0.000D+00      0.000D+00      -233.05414908    618.292016    0.70503   -0.83617    0.00000    0    start
    2      0.000D+00      0.893D-02      -233.01390937    590.923944   -0.01905   -0.01008    0.00000    1    diag
    3      0.180D-01      0.102D-01      -233.22553149    605.810926    0.38645   -0.53487    0.00000    2    diag
    4      0.104D-01      0.804D-03      -233.22644550    605.470878    0.36885   -0.44393    0.00000    3    diag
    5      0.807D-03      0.313D-03      -233.22660785    605.461972    0.37218   -0.47901    0.00000    4    diag
    6      0.286D-03      0.631D-04      -233.22661409    605.516061    0.37269   -0.47445    0.00000    5    diag
    7      0.681D-04      0.247D-04      -233.22661522    605.505586    0.37254   -0.47403    0.00000    6    diag
    8      0.196D-04      0.191D-05      -233.22661522    605.507921    0.37261   -0.47446    0.00000    7    diag
    9      0.286D-05      0.407D-06      -233.22661522    605.507854    0.37261   -0.47428    0.00000    0    orth

 Final occupancy:  21

 !RKS STATE 1.1 Energy               -233.226615224856
 Nuclear energy                       198.77359127
 One-electron energy                 -709.14317260
 Two-electron energy                  302.75392699
 SCF exchange energy                  -32.47034661     Factor= 0.2500
 Density functional                   -25.61096089     PBEX=-32.30978910 PBEC= -1.37861906
 Virial quotient                       -1.01064799
 !RKS STATE 1.1 Dipole moment           0.37260798    -0.47427510     0.00000000
 Dipole moment /Debye                   0.94701299    -1.20540810     0.00000000

 Orbital energies:

         1.1          2.1          3.1          4.1          5.1          6.1          7.1          8.1          9.1         10.1
    -19.195416   -10.286027   -10.222972   -10.222954   -10.217198    -1.024078    -0.799836    -0.703174    -0.701918    -0.577356

        11.1         12.1         13.1         14.1         15.1         16.1         17.1         18.1         19.1         20.1
     -0.499647    -0.462547    -0.460603    -0.420671    -0.407132    -0.388043    -0.375578    -0.362801    -0.357130    -0.326443

        21.1         22.1         23.1
     -0.276356     0.052053     0.102639

 HOMO     21.1    -0.276356 =      -7.5200eV
 LUMO     22.1     0.052053 =       1.4164eV
 LUMO-HOMO         0.328409 =       8.9365eV


 **********************************************************************************************************************************
 DATASETS  * FILE   NREC   LENGTH (MB)   RECORD NAMES
              1      20      122.15       500      610      700      900      950      970     1000      129      960     1100   
                                          VAR    BASINP    GEOM    SYMINP    ZMAT    AOBASIS   BASIS     P2S    ABASIS      S 
                                         1400     1410     1200     1210     1080     1600     1650     1300     1700     1800   
                                           T        V       H0       H01     AOSYM     SMH    MOLCAS    ERIS     OPER     GRID   

              2       5        3.30       700     1000      520     1800     2100   
                                         GEOM     BASIS   MCVARS    GRID      RKS  

 PROGRAMS   *        TOTAL        KS       INT
 CPU TIMES  *        19.11     14.94      4.02
 REAL TIME  *        78.01 SEC
 DISK USED  *       426.89 MB      
 **********************************************************************************************************************************


 PROGRAM * Intrinsic Basis Bonding Analysis (IBBA)          Author: G. Knizia

 Molecular orbitals read from record     2100.2  Type=RKS/CANONICAL (state 1.1)
 Fock matrix read from record            2100.2  Type=RKS/TOTAL (state 1.1)
 Orbital energies read from record       2100.2  Type=RKS/CANONICAL (state 1.1)
 Density matrix read from record         2100.2  Type=RKS/CHARGE (state 1.1)

 Number of core orbitals:           5 (   5 )
 Number of closed-shell orbitals:  16 (  16 )

 Basis set MINAO-AUTO-PP generated.      Number of basis functions:   35 

 Polarized AO type:                A = (O Ot + (1-O)(1-Ot)) P12
 Orthogonalization method:         Symmetric (Loewdin)
 Localization functional:          L = sum[A,i] <i|n_A|i>^4 -> max

 Localization group 1:  21 orbitals, occupancy  2.000
 Iterative localization: IB/PM,    7 iter; Final gradient 0.53E-08

 Bond order analysis:       [THRPRINT= 0.020]

   CEN ATOM   CEN ATOM     WIBERG.BO      RENORM.BO
     1   C  -   2   C       0.994923       0.992117
     1   C  -   5   H       0.964249       0.987376
     1   C  -   6   H       0.959408       0.982312
     1   C  -   7   H       0.959408       0.982312

     2   C  -   1   C       0.994923       0.992117
     2   C  -   9   C       0.993885       0.974825
     2   C  -   8   C       0.993885       0.974825
     2   C  -   3   O       0.941634       0.952852

     3   O  -   2   C       0.941634       0.952852
     3   O  -   4   H       0.871246       0.977916
     3   O  -   8   C       0.027159       0.013931
     3   O  -   9   C       0.027159       0.013931

     4   H  -   3   O       0.871246       0.977916

     5   H  -   1   C       0.964249       0.987376

     6   H  -   1   C       0.959408       0.982312

     7   H  -   1   C       0.959408       0.982312

     8   C  -   2   C       0.993885       0.974825
     8   C  -  14   H       0.963611       0.982844
     8   C  -  12   H       0.960230       0.982558
     8   C  -  10   H       0.959902       0.982132
     8   C  -   3   O       0.027159       0.013931

     9   C  -   2   C       0.993885       0.974825
     9   C  -  15   H       0.963611       0.982844
     9   C  -  13   H       0.960230       0.982558
     9   C  -  11   H       0.959902       0.982132
     9   C  -   3   O       0.027159       0.013931

    10   H  -   8   C       0.959902       0.982132

    11   H  -   9   C       0.959902       0.982132

    12   H  -   8   C       0.960230       0.982558

    13   H  -   9   C       0.960230       0.982558

    14   H  -   8   C       0.963611       0.982844

    15   H  -   9   C       0.963611       0.982844


 Valency analysis:

   CEN ATOM   TOT.VALENCE
     1   C       3.937121
     2   C       3.935552
     3   O       1.932293
     4   H       0.889623
     5   H       0.982909
     6   H       0.980227
     7   H       0.980227
     8   C       3.939608
     9   C       3.939608
    10   H       0.980272
    11   H       0.980272
    12   H       0.981918
    13   H       0.981918
    14   H       0.984361
    15   H       0.984361

 Total charge composition:

   CEN ATOM         s          p       ELECTRONS ->P.CHARGE
     1   C       3.02549    3.38075      6.40624   -0.40624
     2   C       2.92237    2.82774      5.75012    0.24988
     3   O       3.63254    4.91546      8.54800   -0.54800
     4   H       0.66777                 0.66777    0.33223
     5   H       0.86927                 0.86927    0.13073
     6   H       0.85938                 0.85938    0.14062
     7   H       0.85938                 0.85938    0.14062
     8   C       3.03143    3.38847      6.41991   -0.41991
     9   C       3.03143    3.38847      6.41991   -0.41991
    10   H       0.85954                 0.85954    0.14046
    11   H       0.85954                 0.85954    0.14046
    12   H       0.86553                 0.86553    0.13447
    13   H       0.86553                 0.86553    0.13447
    14   H       0.87494                 0.87494    0.12506
    15   H       0.87494                 0.87494    0.12506

 Total charge composition, AO contributions:

   CEN ATOM SHL      SPHERICAL COMPONENTS
     1   C  1s       1.99091
     1   C  2s       1.03458
     1   C  2p       1.04628    1.16112    1.17334

     2   C  1s       1.99259
     2   C  2s       0.92978
     2   C  2p       1.01353    0.80049    1.01373

     3   O  1s       1.99708
     3   O  2s       1.63546
     3   O  2p       1.47060    1.48773    1.95714

     4   H  1s       0.66777

     5   H  1s       0.86927

     6   H  1s       0.85938

     7   H  1s       0.85938

     8   C  1s       1.99101
     8   C  2s       1.04042
     8   C  2p       1.14376    1.14521    1.09951

     9   C  1s       1.99101
     9   C  2s       1.04042
     9   C  2p       1.14376    1.14521    1.09951

    10   H  1s       0.85954

    11   H  1s       0.85954

    12   H  1s       0.86553

    13   H  1s       0.86553

    14   H  1s       0.87494

    15   H  1s       0.87494

 Summary of localized orbital composition:   [THRPRINT= 0.020]

   ORB  GRP  ORB.ENERGY      CENTERS/CHARGES
     1   1   -19.040197      O  3   2.000
     2   1   -10.194078      C  2   2.000
     3   1   -10.107921      C  9   2.000
     4   1   -10.107921      C  8   2.000
     5   1   -10.101337      C  1   2.000
     6   1    -0.770718      O  3   1.334   H  4   0.657
     7   1    -0.734028      O  3   1.271   C  2   0.711
     8   1    -0.587585      C  9   1.009   C  2   0.976
     9   1    -0.587585      C  8   1.009   C  2   0.976
    10   1    -0.586526      C  1   0.991   C  2   0.985   (other: 0.023)
    11   1    -0.564907      O  3   1.982
    12   1    -0.515246      C  8   1.130   H 12   0.856
    13   1    -0.515246      C  9   1.130   H 13   0.856
    14   1    -0.514231      C  8   1.121   H 14   0.868
    15   1    -0.514231      C  9   1.121   H 15   0.868
    16   1    -0.510582      C  1   1.125   H  5   0.862
    17   1    -0.509370      C  9   1.138   H 11   0.851
    18   1    -0.509370      C  8   1.138   H 10   0.851
    19   1    -0.504052      C  1   1.138   H  6   0.851
    20   1    -0.504052      C  1   1.138   H  7   0.851
    21   1    -0.308699      O  3   1.957   (other: 0.043)

 Localized orbitals saved to record      2100.2  (orbital set 2)


 **********************************************************************************************************************************
 DATASETS  * FILE   NREC   LENGTH (MB)   RECORD NAMES
              1      20      122.15       500      610      700      900      950      970     1000      129      960     1100   
                                          VAR    BASINP    GEOM    SYMINP    ZMAT    AOBASIS   BASIS     P2S    ABASIS      S 
                                         1400     1410     1200     1210     1080     1600     1650     1300     1700     1800   
                                           T        V       H0       H01     AOSYM     SMH    MOLCAS    ERIS     OPER     GRID   

              2       5        3.42       700     1000      520     1800     2100   
                                         GEOM     BASIS   MCVARS    GRID      RKS  

 PROGRAMS   *        TOTAL      IBBA        KS       INT
 CPU TIMES  *        19.15      0.03     14.94      4.02
 REAL TIME  *        78.18 SEC
 DISK USED  *       426.89 MB      
 **********************************************************************************************************************************
 Molecular orbitals read from record     2100.2  Type=RKS/LOCAL(IBO)  
 Occupation numbers read from record     2100.2  Type=RKS/LOCAL(IBO)  
 Orbital energies read from record       2100.2  Type=RKS/LOCAL(IBO)  
 Redundancy group numbers read from rec  2100.2  Type=RKS/LOCAL(IBO)  

 IBBA/SVP energy=      0.000000000000

        KS-SCF  
   -233.22661522
 **********************************************************************************************************************************
 Molpro calculation terminated
