
 Primary working directories    : /tmp/sb13343
 Secondary working directories  : /tmp/sb13343
 Wavefunction directory         : /panfs/panasas01/chem/sb13343/wfu/
 Main file repository           : /tmp/sb13343/

 SHA1      : b4a5b34a9e711420743f49e6833241d17c61fb3c
 NAME      : 2099.9.b4a5b34
 ARCHNAME  : linux/x86_64_openmp
 FC        : /cm/shared/languages/GCC-6.1/bin/gfortran
 BLASLIB   : -lblas
 id        : simonbennie

 Nodes     nprocs
 node32-007    1

 Using customized tuning parameters: mindgm=1; mindgv=20; mindgc=4; mindgr=1; noblas=0; minvec=7
 default implementation of scratch files=df  

 memory,500,m
 geomtyp=xyz
 nosym
 noorient
 geometry={
 C          0.00000        0.00000        0.00000
 C          0.00000        0.00000        1.53307
 O          1.40344        0.00000        1.86307
 C          1.76314        0.00000        3.22887
 H         -1.02289        0.00000       -0.39176
 H          0.51995       -0.88625       -0.37815
 H          0.51995        0.88625       -0.37815
 H          2.85677        0.00000        3.25413
 H          1.40708       -0.89217        3.76475
 H          1.40708        0.89217        3.76475
 C         -0.69252       -1.26694        2.06222
 C         -0.69252        1.26694        2.06222
 H         -0.15366       -2.16088        1.72982
 H         -0.15366        2.16088        1.72982
 H         -1.72011       -1.32515        1.68649
 H         -1.72011        1.32515        1.68649
 H         -0.74365       -1.28188        3.15638
 H         -0.74365        1.28188        3.15638
 }
 basis={ default,sto-3g }
 {ks,LSDAC,direct;wf,50,1,0}
 {ibba,bonds=1}

 Variables initialized (895), CPU time= 0.00 sec
 Commands  initialized (725), CPU time= 0.01 sec, 591 directives.
 Default parameters read. Elapsed time= 0.08 sec

 Checking input...
 Passed
1


                                         ***  PROGRAM SYSTEM MOLPRO  ***
                                       Copyright, TTI GmbH Stuttgart, 2015
                                    Version 2099.9 linked May 26 2017 16:03:21


 **********************************************************************************************************************************
 LABEL *                                                                                 
  64 bit serial version                                                                  DATE: 09-Jun-17          TIME: 01:35:25  
 **********************************************************************************************************************************

 SHA1:             b4a5b34a9e711420743f49e6833241d17c61fb3c
 **********************************************************************************************************************************
 SETTING GEOMTYP        =    XYZ

 Variable memory set to  500000000 words,  buffer space 

 ZSYMEL=NOSYM

 SETTING BASIS          =    STO-3G


 Recomputing integrals since basis changed


 Using spherical harmonics

 Library entry C      S STO-3G               selected for orbital group  1
 Library entry C      P STO-3G               selected for orbital group  1
 Library entry O      S STO-3G               selected for orbital group  2
 Library entry O      P STO-3G               selected for orbital group  2
 Library entry H      S STO-3G               selected for orbital group  4


 PROGRAM * SEWARD (Integral evaluation for generally contracted gaussian basis sets)     Author: Roland Lindh, 1990

 Geometry written to block  1 of record 700


 Point group  C1  



 ATOMIC COORDINATES

 NR  ATOM    CHARGE       X              Y              Z

   1  C       6.00    0.000000000    0.000000000    0.000000000
   2  C       6.00    0.000000000    0.000000000    2.897082430
   3  O       8.00    2.652117232    0.000000000    3.520692051
   4  C       6.00    3.331851719    0.000000000    6.101679992
   5  H       1.00   -1.932981956    0.000000000   -0.740319107
   6  H       1.00    0.982563098   -1.674769778   -0.714599934
   7  H       1.00    0.982563098    1.674769778   -0.714599934
   8  H       1.00    5.398512901    0.000000000    6.149414474
   9  H       1.00    2.658995835   -1.685956957    7.114346427
  10  H       1.00    2.658995835    1.685956957    7.114346427
  11  C       6.00   -1.308673136   -2.394169616    3.897031009
  12  C       6.00   -1.308673136    2.394169616    3.897031009
  13  H       1.00   -0.290375316   -4.083471388    3.268886045
  14  H       1.00   -0.290375316    4.083471388    3.268886045
  15  H       1.00   -3.250536804   -2.504170574    3.187004212
  16  H       1.00   -3.250536804    2.504170574    3.187004212
  17  H       1.00   -1.405294833   -2.422402125    5.964693745
  18  H       1.00   -1.405294833    2.422402125    5.964693745

 Bond lengths in Bohr (Angstrom)

 1-2  2.897082430  1-5  2.069901355  1-6  2.069042560  1-7  2.069042560  2-3  2.724447609
     ( 1.533070000)     ( 1.095344626)     ( 1.094890171)     ( 1.094890171)     ( 1.441715587)

  2-11  2.905954351   2-12  2.905954351   3- 4  2.668995640   4- 8  2.067212379   4- 9  2.078624355
       ( 1.537764818)       ( 1.537764818)       ( 1.412371669)       ( 1.093921681)       ( 1.099960639)

  4-10  2.078624355  11-13  2.070081404  11-15  2.070524757  11-17  2.070111596  12-14  2.070081404
       ( 1.099960639)       ( 1.095439904)       ( 1.095674516)       ( 1.095455880)       ( 1.095439904)

 12-16  2.070524757  12-18  2.070111596
       ( 1.095674516)       ( 1.095455880)

 Bond angles

  1- 2- 3  103.23196371   1- 2-11  110.12706952   1- 2-12  110.12706952   2- 1- 5  110.95650426

  2- 1- 6  110.20481748   2- 1- 7  110.20481748   2- 3- 4  117.98647004   2-11-13  110.26679927

  2-11-15  110.37287188   2-11-17  112.08316935   2-12-14  110.26679927   2-12-16  110.37287188

  2-12-18  112.08316935   3- 2-11  111.07703285   3- 2-12  111.07703285   3- 4- 8  106.07765410

  3- 4- 9  112.87219182   3- 4-10  112.87219182   5- 1- 6  108.65976572   5- 1- 7  108.65976572

  6- 1- 7  108.08288210   8- 4- 9  108.20190897   8- 4-10  108.20190897   9- 4-10  108.40564999

 11- 2-12  110.95103964  13-11-15  108.29648994  13-11-17  108.35544687  14-12-16  108.29648994

 14-12-18  108.35544687  15-11-17  107.33851825  16-12-18  107.33851825

 NUCLEAR CHARGE:                   50
 NUMBER OF PRIMITIVE AOS:         126
 NUMBER OF SYMMETRY AOS:          126
 NUMBER OF CONTRACTIONS:           42   (  42A   )
 NUMBER OF CORE ORBITALS:           6   (   6A   )
 NUMBER OF VALENCE ORBITALS:       36   (  36A   )


 NUCLEAR REPULSION ENERGY  270.15500869


 Eigenvalues of metric

         1 0.207E+00 0.226E+00 0.228E+00 0.234E+00 0.307E+00 0.355E+00 0.359E+00 0.362E+00


 Contracted 2-electron integrals neglected if value below      1.0D-11
 AO integral compression algorithm  1   Integral accuracy      1.0D-11

     2.884 MB (compressed) written to integral file ( 84.3%)


 NUMBER OF SORTED TWO-ELECTRON INTEGRALS:     408156.     BUFFER LENGTH:  32768
 NUMBER OF SEGMENTS:   1  SEGMENT LENGTH:     408156      RECORD LENGTH: 524288

 Memory used in sort:       0.97 MW

 SORT1 READ      453477. AND WROTE      382834. INTEGRALS IN      2 RECORDS. CPU TIME:     0.01 SEC, REAL TIME:     0.02 SEC
 SORT2 READ      382834. AND WROTE      408156. INTEGRALS IN     11 RECORDS. CPU TIME:     0.03 SEC, REAL TIME:     0.04 SEC

 FILE SIZES:   FILE 1:    33.2 MBYTE,  FILE 4:     8.4 MBYTE,   TOTAL:     41.6 MBYTE

 OPERATOR DM      FOR CENTER  0  COORDINATES:    0.000000    0.000000    0.000000


 **********************************************************************************************************************************
 DATASETS  * FILE   NREC   LENGTH (MB)   RECORD NAMES
              1      19       31.98       500      610      700      900      950      970     1000      129      960     1100   
                                          VAR    BASINP    GEOM    SYMINP    ZMAT    AOBASIS   BASIS     P2S    ABASIS      S 
                                         1400     1410     1200     1210     1080     1600     1650     1300     1700   
                                           T        V       H0       H01     AOSYM     SMH    MOLCAS    ERIS     OPER   

 PROGRAMS   *        TOTAL       INT
 CPU TIMES  *         0.90      0.75
 REAL TIME  *         1.28 SEC
 DISK USED  *        42.19 MB      
 **********************************************************************************************************************************

 Density functional group LSDAC=PW92C
 Functional: PW92C(Automatically generated (new) PW92C)                        Gradient terms: 0
 Use grid at  1800.2

 Functional: PW92C                     Factor:  1.0000

 Generated new metagrid on record  1800.2 with target accuracy 1.0D-06 and 66012 points in CPU time    2.0
 Computed new grid on record 1800.1 in CPU time    2.3
   22104 words reserved for DFT integration

 PROGRAM * RKS-SCF (Restricted closed shell Kohn-Sham)     Authors: W. Meyer, H.-J. Werner, P.J. Knowles, 1993

 NUMBER OF ELECTRONS:      25+   25-    SPACE SYMMETRY=1    SPIN SYMMETRY: Singlet 
 CONVERGENCE THRESHOLDS:    1.00E-05 (Density)    1.00E-06 (Energy)
 MAX. NUMBER OF ITERATIONS:       60
 INTERPOLATION TYPE:            DIIS
 INTERPOLATION STEPS:              2 (START)      1 (STEP)
 LEVEL SHIFTS:                  0.00 (CLOSED)  0.00 (OPEN) 



 Use fine grid record 1800.2 for energy threshold  1.0D-06
 Orbital guess generated from atomic densities. Full valence occupancy:   25

 Molecular orbital dump at record        2100.2

 Initial occupancy:  25

 ITERATION    DDIFF          GRAD             ENERGY        2-EL.EN.            DIPOLE MOMENTS         DIIS   ORB.
    1      0.000D+00      0.000D+00      -232.52667176    803.704594    0.06326    0.00000    0.09546    0    start
    2      0.000D+00      0.169D-01      -232.44568727    782.642558   -0.21454   -0.00000   -0.49267    1    diag
    3      0.580D-01      0.213D-01      -232.66629620    793.893060    0.03625    0.00000   -0.11329    2    diag
    4      0.328D-01      0.133D-02      -232.66681277    794.289375   -0.06413    0.00000   -0.08980    3    diag
    5      0.338D-02      0.887D-03      -232.66718532    794.024640   -0.01281    0.00000   -0.12967    4    diag
    6      0.145D-02      0.168D-03      -232.66719696    794.043289   -0.01865    0.00000   -0.11833    5    diag
    7      0.290D-03      0.511D-04      -232.66719806    794.039006   -0.01920    0.00000   -0.11797    6    diag
    8      0.763D-04      0.705D-05      -232.66719809    794.038654   -0.01899    0.00000   -0.11860    7    diag
    9      0.140D-04      0.146D-05      -232.66719809    794.038423   -0.01894    0.00000   -0.11859    8    diag
   10      0.237D-05      0.326D-06      -232.66719809    794.038448   -0.01895    0.00000   -0.11858    0    orth

 Final occupancy:  25

 !RKS STATE 1.1 Energy               -232.667198090566
 Nuclear energy                       270.15500869
 One-electron energy                 -896.70376466
 Two-electron energy                  397.01922396
 Density functional                    -3.13766608     PW92C=-3.13766608
 Virial quotient                       -0.89397581
 !RKS STATE 1.1 Dipole moment          -0.01894599     0.00000000    -0.11857889
 Dipole moment /Debye                  -0.04815275     0.00000000    -0.30137772

 Orbital energies:

         1.1          2.1          3.1          4.1          5.1          6.1          7.1          8.1          9.1         10.1
    -15.851277    -7.753985    -7.748919    -7.741459    -7.734744    -7.733069    -0.353363    -0.204730    -0.126334    -0.122005

        11.1         12.1         13.1         14.1         15.1         16.1         17.1         18.1         19.1         20.1
     -0.083241     0.030389     0.047825     0.069581     0.072830     0.097717     0.119062     0.140886     0.149816     0.164289

        21.1         22.1         23.1         24.1         25.1         26.1         27.1
      0.177294     0.201079     0.211402     0.407440     0.469500     0.729551     0.795151

 HOMO     25.1     0.469500 =      12.7758eV
 LUMO     26.1     0.729551 =      19.8521eV
 LUMO-HOMO         0.260051 =       7.0763eV


 **********************************************************************************************************************************
 DATASETS  * FILE   NREC   LENGTH (MB)   RECORD NAMES
              1      20       34.09       500      610      700      900      950      970     1000      129      960     1100   
                                          VAR    BASINP    GEOM    SYMINP    ZMAT    AOBASIS   BASIS     P2S    ABASIS      S 
                                         1400     1410     1200     1210     1080     1600     1650     1300     1700     1800   
                                           T        V       H0       H01     AOSYM     SMH    MOLCAS    ERIS     OPER     GRID   

              2       5        3.09       700     1000      520     1800     2100   
                                         GEOM     BASIS   MCVARS    GRID      RKS  

 PROGRAMS   *        TOTAL        KS       INT
 CPU TIMES  *         6.11      5.21      0.75
 REAL TIME  *         6.87 SEC
 DISK USED  *        42.19 MB      
 **********************************************************************************************************************************


 PROGRAM * Intrinsic Basis Bonding Analysis (IBBA)          Author: G. Knizia

 Molecular orbitals read from record     2100.2  Type=RKS/CANONICAL (state 1.1)
 Fock matrix read from record            2100.2  Type=RKS/TOTAL (state 1.1)
 Orbital energies read from record       2100.2  Type=RKS/CANONICAL (state 1.1)
 Density matrix read from record         2100.2  Type=RKS/CHARGE (state 1.1)

 Number of core orbitals:           6 (   6 )
 Number of closed-shell orbitals:  19 (  19 )

 Basis set MINAO-AUTO-PP generated.      Number of basis functions:   42 

 Polarized AO type:                A = (O Ot + (1-O)(1-Ot)) P12
 Orthogonalization method:         Symmetric (Loewdin)
 Localization functional:          L = sum[A,i] <i|n_A|i>^4 -> max

 Localization group 1:  25 orbitals, occupancy  2.000
 Iterative localization: IB/PM,    7 iter; Final gradient 0.45E-08

 Bond order analysis:       [THRPRINT= 0.020]

   CEN ATOM   CEN ATOM     WIBERG.BO      RENORM.BO
     1   C  -   2   C       0.973541       0.976696
     1   C  -   5   H       0.970340       0.983739
     1   C  -   6   H       0.969167       0.981887
     1   C  -   7   H       0.969167       0.981887

     2   C  -   3   O       1.024944       0.982549
     2   C  -   1   C       0.973541       0.976696
     2   C  -  11   C       0.966307       0.943621
     2   C  -  12   C       0.966307       0.943621

     3   O  -   4   C       1.101098       1.046501
     3   O  -   2   C       1.024944       0.982549
     3   O  -   9   H       0.054962       0.030886
     3   O  -  10   H       0.054962       0.030886
     3   O  -  12   C       0.039290       0.020985
     3   O  -  11   C       0.039290       0.020985
     3   O  -   8   H       0.020007       0.011914

     4   C  -   3   O       1.101098       1.046501
     4   C  -   8   H       0.952645       0.951948
     4   C  -  10   H       0.933484       0.896545
     4   C  -   9   H       0.933484       0.896545

     5   H  -   1   C       0.970340       0.983739

     6   H  -   1   C       0.969167       0.981887

     7   H  -   1   C       0.969167       0.981887

     8   H  -   4   C       0.952645       0.951948
     8   H  -   3   O       0.020007       0.011914

     9   H  -   4   C       0.933484       0.896545
     9   H  -   3   O       0.054962       0.030886

    10   H  -   4   C       0.933484       0.896545
    10   H  -   3   O       0.054962       0.030886

    11   C  -  13   H       0.968811       0.981116
    11   C  -  15   H       0.967903       0.983029
    11   C  -  17   H       0.966663       0.978490
    11   C  -   2   C       0.966307       0.943621
    11   C  -   3   O       0.039290       0.020985

    12   C  -  14   H       0.968811       0.981116
    12   C  -  16   H       0.967903       0.983029
    12   C  -  18   H       0.966663       0.978490
    12   C  -   2   C       0.966307       0.943621
    12   C  -   3   O       0.039290       0.020985

    13   H  -  11   C       0.968811       0.981116

    14   H  -  12   C       0.968811       0.981116

    15   H  -  11   C       0.967903       0.983029

    16   H  -  12   C       0.967903       0.983029

    17   H  -  11   C       0.966663       0.978490

    18   H  -  12   C       0.966663       0.978490


 Valency analysis:

   CEN ATOM   TOT.VALENCE
     1   C       3.952822
     2   C       3.977502
     3   O       2.410270
     4   C       3.947795
     5   H       0.996110
     6   H       0.996047
     7   H       0.996047
     8   H       0.996918
     9   H       0.999468
    10   H       0.999468
    11   C       3.950627
    12   C       3.950627
    13   H       0.996482
    14   H       0.996482
    15   H       0.995976
    16   H       0.995976
    17   H       0.996566
    18   H       0.996566

 Total charge composition:

   CEN ATOM         s          p       ELECTRONS ->P.CHARGE
     1   C       2.88889    3.31325      6.20214   -0.20214
     2   C       2.87985    3.06175      5.94160    0.05840
     3   O       3.56190    4.34800      7.90990    0.09010
     4   C       2.90676    3.25952      6.16628   -0.16628
     5   H       0.93763                 0.93763    0.06237
     6   H       0.93712                 0.93712    0.06288
     7   H       0.93712                 0.93712    0.06288
     8   H       0.94448                 0.94448    0.05552
     9   H       0.97694                 0.97694    0.02306
    10   H       0.97694                 0.97694    0.02306
    11   C       2.88771    3.32857      6.21627   -0.21627
    12   C       2.88771    3.32857      6.21627   -0.21627
    13   H       0.94069                 0.94069    0.05931
    14   H       0.94069                 0.94069    0.05931
    15   H       0.93657                 0.93657    0.06343
    16   H       0.93657                 0.93657    0.06343
    17   H       0.94140                 0.94140    0.05860
    18   H       0.94140                 0.94140    0.05860

 Total charge composition, AO contributions:

   CEN ATOM SHL      SPHERICAL COMPONENTS
     1   C  1s       1.99810
     1   C  2s       0.89078
     1   C  2p       1.12303    1.12282    1.06740

     2   C  1s       1.99844
     2   C  2s       0.88141
     2   C  2p       0.95506    1.05546    1.05123

     3   O  1s       1.99895
     3   O  2s       1.56295
     3   O  2p       1.23970    1.83441    1.27389

     4   C  1s       1.99821
     4   C  2s       0.90855
     4   C  2p       1.13238    1.14517    0.98196

     5   H  1s       0.93763

     6   H  1s       0.93712

     7   H  1s       0.93712

     8   H  1s       0.94448

     9   H  1s       0.97694

    10   H  1s       0.97694

    11   C  1s       1.99813
    11   C  2s       0.88957
    11   C  2p       1.11684    1.09416    1.11756

    12   C  1s       1.99813
    12   C  2s       0.88957
    12   C  2p       1.11684    1.09416    1.11756

    13   H  1s       0.94069

    14   H  1s       0.94069

    15   H  1s       0.93657

    16   H  1s       0.93657

    17   H  1s       0.94140

    18   H  1s       0.94140

 Summary of localized orbital composition:   [THRPRINT= 0.020]

   ORB  GRP  ORB.ENERGY      CENTERS/CHARGES
     1   1   -15.752485      O  3   2.000
     2   1    -7.677800      C  2   2.000
     3   1    -7.668883      C  4   2.000
     4   1    -7.658386      C  1   2.000
     5   1    -7.651417      C 11   2.000
     6   1    -7.651417      C 12   2.000
     7   1    -0.105154      O  3   1.062   C  4   0.927
     8   1    -0.077253      O  3   1.057   C  2   0.910   (other: 0.033)
     9   1     0.003762      C  1   0.992   C  2   0.978   (other: 0.030)
    10   1     0.009882      C 12   1.004   C  2   0.975   (other: 0.021)
    11   1     0.009882      C 11   1.004   C  2   0.975   (other: 0.021)
    12   1     0.033083      C  4   1.063   H  8   0.926
    13   1     0.036493      C  1   1.062   H  6   0.928
    14   1     0.036493      C  1   1.062   H  7   0.928
    15   1     0.036523      C  1   1.061   H  5   0.929
    16   1     0.039050      C 12   1.058   H 14   0.931
    17   1     0.039050      C 11   1.058   H 13   0.931
    18   1     0.039271      C 11   1.058   H 17   0.931
    19   1     0.039271      C 12   1.058   H 18   0.931
    20   1     0.040565      C  4   1.054   H  9   0.943
    21   1     0.040565      C  4   1.054   H 10   0.943
    22   1     0.040912      C 11   1.061   H 15   0.927
    23   1     0.040912      C 12   1.061   H 16   0.927
    24   1     0.227769      O  3   1.940   (other: 0.060)
    25   1     0.435298      O  3   1.834   C  4   0.042   C  2   0.035   H  9   0.026   H 10   0.026   (other: 0.037)

 Localized orbitals saved to record      2100.2  (orbital set 2)


 **********************************************************************************************************************************
 DATASETS  * FILE   NREC   LENGTH (MB)   RECORD NAMES
              1      20       34.09       500      610      700      900      950      970     1000      129      960     1100   
                                          VAR    BASINP    GEOM    SYMINP    ZMAT    AOBASIS   BASIS     P2S    ABASIS      S 
                                         1400     1410     1200     1210     1080     1600     1650     1300     1700     1800   
                                           T        V       H0       H01     AOSYM     SMH    MOLCAS    ERIS     OPER     GRID   

              2       5        3.11       700     1000      520     1800     2100   
                                         GEOM     BASIS   MCVARS    GRID      RKS  

 PROGRAMS   *        TOTAL      IBBA        KS       INT
 CPU TIMES  *         6.15      0.04      5.21      0.75
 REAL TIME  *         7.02 SEC
 DISK USED  *        42.19 MB      
 **********************************************************************************************************************************
 Molecular orbitals read from record     2100.2  Type=RKS/LOCAL(IBO)  
 Occupation numbers read from record     2100.2  Type=RKS/LOCAL(IBO)  
 Orbital energies read from record       2100.2  Type=RKS/LOCAL(IBO)  
 Redundancy group numbers read from rec  2100.2  Type=RKS/LOCAL(IBO)  

 IBBA/STO-3G energy=      0.000000000000

        KS-SCF  
   -232.66719809
 **********************************************************************************************************************************
 Molpro calculation terminated
