
 Primary working directories    : /tmp/sb13343
 Secondary working directories  : /tmp/sb13343
 Wavefunction directory         : /panfs/panasas01/chem/sb13343/wfu/
 Main file repository           : /tmp/sb13343/

 SHA1      : b4a5b34a9e711420743f49e6833241d17c61fb3c
 NAME      : 2099.9.b4a5b34
 ARCHNAME  : linux/x86_64_openmp
 FC        : /cm/shared/languages/GCC-6.1/bin/gfortran
 BLASLIB   : -lblas
 id        : simonbennie

 Nodes     nprocs
 node33-011    1

 Using customized tuning parameters: mindgm=1; mindgv=20; mindgc=4; mindgr=1; noblas=0; minvec=7
 default implementation of scratch files=df  

 memory,500,m
 geomtyp=xyz
 nosym
 noorient
 geometry={
 C         -1.53233        0.02247        0.00000
 C         -0.00192        0.01421        0.00000
 O          0.37239        1.40356        0.00000
 H          1.34248        1.44036        0.00000
 H         -1.92991       -0.99819        0.00000
 H         -1.90797        0.54382       -0.88653
 H         -1.90797        0.54382        0.88653
 C          0.54303       -0.66466       -1.26580
 C          0.54303       -0.66466        1.26580
 H          0.17836       -0.14752       -2.15943
 H          0.17836       -0.14752        2.15943
 H          0.23752       -1.71600       -1.32280
 H          0.23752       -1.71600        1.32280
 H          1.64084       -0.63767       -1.28032
 H          1.64084       -0.63767        1.28032
 }
 basis={ default,svp }
 {ks,PBEREV,direct;wf,42,1,0}
 {ibba,bonds=1}

 Variables initialized (895), CPU time= 0.00 sec
 Commands  initialized (725), CPU time= 0.01 sec, 591 directives.
 Default parameters read. Elapsed time= 0.19 sec

 Checking input...
 Passed
1


                                         ***  PROGRAM SYSTEM MOLPRO  ***
                                       Copyright, TTI GmbH Stuttgart, 2015
                                    Version 2099.9 linked May 26 2017 16:03:21


 **********************************************************************************************************************************
 LABEL *                                                                                 
  64 bit serial version                                                                  DATE: 09-Jun-17          TIME: 03:39:16  
 **********************************************************************************************************************************

 SHA1:             b4a5b34a9e711420743f49e6833241d17c61fb3c
 **********************************************************************************************************************************
 SETTING GEOMTYP        =    XYZ

 Variable memory set to  500000000 words,  buffer space 

 ZSYMEL=NOSYM

 SETTING BASIS          =    SVP


 Recomputing integrals since basis changed


 Using spherical harmonics

 Library entry C      S def2-SVP             selected for orbital group  1
 Library entry C      P def2-SVP             selected for orbital group  1
 Library entry C      D def2-SVP             selected for orbital group  1
 Library entry O      S def2-SVP             selected for orbital group  2
 Library entry O      P def2-SVP             selected for orbital group  2
 Library entry O      D def2-SVP             selected for orbital group  2
 Library entry H      S def2-SVP             selected for orbital group  3
 Library entry H      P def2-SVP             selected for orbital group  3


 PROGRAM * SEWARD (Integral evaluation for generally contracted gaussian basis sets)     Author: Roland Lindh, 1990

 Geometry written to block  1 of record 700


 Point group  C1  



 ATOMIC COORDINATES

 NR  ATOM    CHARGE       X              Y              Z

   1  C       6.00   -2.895684032    0.042462146    0.000000000
   2  C       6.00   -0.003628274    0.026853008    0.000000000
   3  O       8.00    0.703715112    2.652343999    0.000000000
   4  H       1.00    2.536919528    2.721885921    0.000000000
   5  H       1.00   -3.647001345   -1.886305720    0.000000000
   6  H       1.00   -3.605540754    1.027670861   -1.675298901
   7  H       1.00   -3.605540754    1.027670861    1.675298901
   8  C       6.00    1.026177977   -1.256025366   -2.392015328
   9  C       6.00    1.026177977   -1.256025366    2.392015328
  10  H       1.00    0.337051552   -0.278772398   -4.080731285
  11  H       1.00    0.337051552   -0.278772398    4.080731285
  12  H       1.00    0.448847749   -3.242770030   -2.499729718
  13  H       1.00    0.448847749   -3.242770030    2.499729718
  14  H       1.00    3.100738214   -1.205021658   -2.419454152
  15  H       1.00    3.100738214   -1.205021658    2.419454152

 Bond lengths in Bohr (Angstrom)

 1-2  2.892097881  1-5  2.069933136  1-6  2.069096224  1-7  2.069096224  2-3  2.719106031
     ( 1.530432290)     ( 1.095361444)     ( 1.094918569)     ( 1.094918569)     ( 1.438888946)

  2- 8  2.903104402   2- 9  2.903104402   3- 4  1.834522965   8-10  2.069222119   8-12  2.071730422
       ( 1.536256691)       ( 1.536256691)       ( 0.970787746)       ( 1.094985190)       ( 1.096312526)

  8-14  2.075368508   9-11  2.069222119   9-13  2.071730422   9-15  2.075368508
       ( 1.098237719)       ( 1.094985190)       ( 1.096312526)       ( 1.098237719)

 Bond angles

  1-2-3  104.76902697   1-2-8  110.92255387   1-2-9  110.92255387   2-1-5  110.97328220

  2- 1- 6  110.22090701   2- 1- 7  110.22090701   2- 3- 4  107.25071562   2- 8-10  110.21836376

  2- 8-12  111.57747468   2- 8-14  110.77023896   2- 9-11  110.21836376   2- 9-13  111.57747468

  2- 9-15  110.77023896   3- 2- 8  109.53648747   3- 2- 9  109.53648747   5- 1- 6  108.61190457

  5- 1- 7  108.61190457   6- 1- 7  108.12870271   8- 2- 9  110.96453384  10- 8-12  108.52192632

 10- 8-14  108.08997829  11- 9-13  108.52192632  11- 9-15  108.08997829  12- 8-14  107.54424578

 13- 9-15  107.54424578

 NUCLEAR CHARGE:                   42
 NUMBER OF PRIMITIVE AOS:         195
 NUMBER OF SYMMETRY AOS:          190
 NUMBER OF CONTRACTIONS:          120   ( 120A   )
 NUMBER OF CORE ORBITALS:           5   (   5A   )
 NUMBER OF VALENCE ORBITALS:       30   (  30A   )


 NUCLEAR REPULSION ENERGY  198.77359127


 Eigenvalues of metric

         1 0.176E-02 0.546E-02 0.548E-02 0.123E-01 0.248E-01 0.256E-01 0.256E-01 0.275E-01


 Contracted 2-electron integrals neglected if value below      1.0D-11
 AO integral compression algorithm  1   Integral accuracy      1.0D-11

     101.974 MB (compressed) written to integral file ( 44.9%)


 NUMBER OF SORTED TWO-ELECTRON INTEGRALS:   26357430.     BUFFER LENGTH:  32768
 NUMBER OF SEGMENTS:   2  SEGMENT LENGTH:   15997996      RECORD LENGTH: 524288

 Memory used in sort:      16.56 MW

 SORT1 READ    28411733. AND WROTE    24096425. INTEGRALS IN     70 RECORDS. CPU TIME:     0.35 SEC, REAL TIME:     0.65 SEC
 SORT2 READ    24096425. AND WROTE    26357430. INTEGRALS IN    389 RECORDS. CPU TIME:     0.63 SEC, REAL TIME:     3.99 SEC

 FILE SIZES:   FILE 1:   132.7 MBYTE,  FILE 4:   293.6 MBYTE,   TOTAL:    426.4 MBYTE

 OPERATOR DM      FOR CENTER  0  COORDINATES:    0.000000    0.000000    0.000000


 **********************************************************************************************************************************
 DATASETS  * FILE   NREC   LENGTH (MB)   RECORD NAMES
              1      19      120.44       500      610      700      900      950      970     1000      129      960     1100   
                                          VAR    BASINP    GEOM    SYMINP    ZMAT    AOBASIS   BASIS     P2S    ABASIS      S 
                                         1400     1410     1200     1210     1080     1600     1650     1300     1700   
                                           T        V       H0       H01     AOSYM     SMH    MOLCAS    ERIS     OPER   

 PROGRAMS   *        TOTAL       INT
 CPU TIMES  *         4.17      4.03
 REAL TIME  *         8.84 SEC
 DISK USED  *       426.89 MB      
 **********************************************************************************************************************************

 Density functional group PBEREV=PBEXREV+PBEC
 Functional: PBEXREV(Automatically generated (new) PBEXREV)                    Gradient terms: 1
 Functional: PBEC(Automatically generated (new) PBEC)                          Gradient terms: 1
 Use grid at  1800.2

 Functional: PBEXREV                   Factor:  1.0000
 Functional: PBEC                      Factor:  1.0000

 Generated new metagrid on record  1800.2 with target accuracy 1.0D-06 and 53396 points in CPU time    1.5
 Computed new grid on record 1800.1 in CPU time    1.7
   99539 words reserved for DFT integration

 PROGRAM * RKS-SCF (Restricted closed shell Kohn-Sham)     Authors: W. Meyer, H.-J. Werner, P.J. Knowles, 1993

 NUMBER OF ELECTRONS:      21+   21-    SPACE SYMMETRY=1    SPIN SYMMETRY: Singlet 
 CONVERGENCE THRESHOLDS:    1.00E-05 (Density)    1.00E-06 (Energy)
 MAX. NUMBER OF ITERATIONS:       60
 INTERPOLATION TYPE:            DIIS
 INTERPOLATION STEPS:              2 (START)      1 (STEP)
 LEVEL SHIFTS:                  0.00 (CLOSED)  0.00 (OPEN) 



 Use fine grid record 1800.2 for energy threshold  1.0D-06
 Orbital guess generated from atomic densities. Full valence occupancy:   21

 Molecular orbital dump at record        2100.2

 Initial occupancy:  21

 ITERATION    DDIFF          GRAD             ENERGY        2-EL.EN.            DIPOLE MOMENTS         DIIS   ORB.
    1      0.000D+00      0.000D+00      -233.14935853    638.752474    0.69918   -0.77886    0.00000    0    start
    2      0.000D+00      0.111D-01      -232.78099170    595.128671   -0.34745    0.41169    0.00000    1    diag
    3      0.321D-01      0.169D-01      -233.41813339    622.856031    0.41602   -0.56778    0.00000    2    diag
    4      0.234D-01      0.151D-02      -233.42124540    621.662336    0.35075   -0.34853    0.00000    3    diag
    5      0.195D-02      0.750D-03      -233.42222498    621.660317    0.35381   -0.43335    0.00000    4    diag
    6      0.699D-03      0.166D-03      -233.42226427    621.748143    0.35701   -0.41754    0.00000    5    diag
    7      0.187D-03      0.742D-04      -233.42227394    621.722845    0.35776   -0.41948    0.00000    6    diag
    8      0.581D-04      0.681D-05      -233.42227404    621.730693    0.35717   -0.42106    0.00000    7    diag
    9      0.100D-04      0.200D-05      -233.42227405    621.730361    0.35741   -0.42053    0.00000    8    diag
   10      0.253D-05      0.400D-06      -233.42227405    621.729814    0.35743   -0.42052    0.00000    0    orth

 Final occupancy:  21

 !RKS STATE 1.1 Energy               -233.422274050652
 Nuclear energy                       198.77359127
 One-electron energy                 -709.12904298
 Two-electron energy                  310.86490678
 Density functional                   -33.93172912     PBEXREV=-32.55475452 PBEC= -1.37697460
 Virial quotient                       -1.01097271
 !RKS STATE 1.1 Dipole moment           0.35742556    -0.42052053     0.00000000
 Dipole moment /Debye                   0.90842565    -1.06878658     0.00000000

 Orbital energies:

         1.1          2.1          3.1          4.1          5.1          6.1          7.1          8.1          9.1         10.1
    -18.752803    -9.956879    -9.896310    -9.896295    -9.891302    -0.909511    -0.703567    -0.615099    -0.614277    -0.503038

        11.1         12.1         13.1         14.1         15.1         16.1         17.1         18.1         19.1         20.1
     -0.431671    -0.396600    -0.394948    -0.357925    -0.346428    -0.330336    -0.318192    -0.303769    -0.299424    -0.267492

        21.1         22.1         23.1
     -0.210194     0.023946     0.069941

 HOMO     21.1    -0.210194 =      -5.7197eV
 LUMO     22.1     0.023946 =       0.6516eV
 LUMO-HOMO         0.234140 =       6.3713eV


 **********************************************************************************************************************************
 DATASETS  * FILE   NREC   LENGTH (MB)   RECORD NAMES
              1      20      122.15       500      610      700      900      950      970     1000      129      960     1100   
                                          VAR    BASINP    GEOM    SYMINP    ZMAT    AOBASIS   BASIS     P2S    ABASIS      S 
                                         1400     1410     1200     1210     1080     1600     1650     1300     1700     1800   
                                           T        V       H0       H01     AOSYM     SMH    MOLCAS    ERIS     OPER     GRID   

              2       5        3.30       700     1000      520     1800     2100   
                                         GEOM     BASIS   MCVARS    GRID      RKS  

 PROGRAMS   *        TOTAL        KS       INT
 CPU TIMES  *        17.52     13.35      4.03
 REAL TIME  *        23.37 SEC
 DISK USED  *       426.89 MB      
 **********************************************************************************************************************************


 PROGRAM * Intrinsic Basis Bonding Analysis (IBBA)          Author: G. Knizia

 Molecular orbitals read from record     2100.2  Type=RKS/CANONICAL (state 1.1)
 Fock matrix read from record            2100.2  Type=RKS/TOTAL (state 1.1)
 Orbital energies read from record       2100.2  Type=RKS/CANONICAL (state 1.1)
 Density matrix read from record         2100.2  Type=RKS/CHARGE (state 1.1)

 Number of core orbitals:           5 (   5 )
 Number of closed-shell orbitals:  16 (  16 )

 Basis set MINAO-AUTO-PP generated.      Number of basis functions:   35 

 Polarized AO type:                A = (O Ot + (1-O)(1-Ot)) P12
 Orthogonalization method:         Symmetric (Loewdin)
 Localization functional:          L = sum[A,i] <i|n_A|i>^4 -> max

 Localization group 1:  21 orbitals, occupancy  2.000
 Iterative localization: IB/PM,    7 iter; Final gradient 0.28E-08

 Bond order analysis:       [THRPRINT= 0.020]

   CEN ATOM   CEN ATOM     WIBERG.BO      RENORM.BO
     1   C  -   2   C       0.994616       0.991908
     1   C  -   5   H       0.963490       0.986195
     1   C  -   6   H       0.958821       0.980283
     1   C  -   7   H       0.958821       0.980283

     2   C  -   1   C       0.994616       0.991908
     2   C  -   9   C       0.993213       0.972320
     2   C  -   8   C       0.993213       0.972320
     2   C  -   3   O       0.946546       0.950309

     3   O  -   2   C       0.946546       0.950309
     3   O  -   4   H       0.873988       0.975109
     3   O  -   9   C       0.030588       0.015674
     3   O  -   8   C       0.030588       0.015674

     4   H  -   3   O       0.873988       0.975109

     5   H  -   1   C       0.963490       0.986195

     6   H  -   1   C       0.958821       0.980283

     7   H  -   1   C       0.958821       0.980283

     8   C  -   2   C       0.993213       0.972320
     8   C  -  14   H       0.962805       0.981086
     8   C  -  10   H       0.959436       0.980092
     8   C  -  12   H       0.958793       0.979397
     8   C  -   3   O       0.030588       0.015674

     9   C  -   2   C       0.993213       0.972320
     9   C  -  15   H       0.962805       0.981086
     9   C  -  11   H       0.959436       0.980092
     9   C  -  13   H       0.958793       0.979397
     9   C  -   3   O       0.030588       0.015674

    10   H  -   8   C       0.959436       0.980092

    11   H  -   9   C       0.959436       0.980092

    12   H  -   8   C       0.958793       0.979397

    13   H  -   9   C       0.958793       0.979397

    14   H  -   8   C       0.962805       0.981086

    15   H  -   9   C       0.962805       0.981086


 Valency analysis:

   CEN ATOM   TOT.VALENCE
     1   C       3.940248
     2   C       3.938980
     3   O       1.955306
     4   H       0.894548
     5   H       0.983427
     6   H       0.981139
     7   H       0.981139
     8   C       3.942704
     9   C       3.942704
    10   H       0.981259
    11   H       0.981259
    12   H       0.982772
    13   H       0.982772
    14   H       0.985014
    15   H       0.985014

 Total charge composition:

   CEN ATOM         s          p       ELECTRONS ->P.CHARGE
     1   C       3.02817    3.37015      6.39831   -0.39831
     2   C       2.92619    2.83200      5.75819    0.24181
     3   O       3.63808    4.89025      8.52833   -0.52833
     4   H       0.67527                 0.67527    0.32473
     5   H       0.87126                 0.87126    0.12874
     6   H       0.86267                 0.86267    0.13733
     7   H       0.86267                 0.86267    0.13733
     8   C       3.03489    3.37734      6.41222   -0.41222
     9   C       3.03489    3.37734      6.41222   -0.41222
    10   H       0.86310                 0.86310    0.13690
    11   H       0.86310                 0.86310    0.13690
    12   H       0.86874                 0.86874    0.13126
    13   H       0.86874                 0.86874    0.13126
    14   H       0.87758                 0.87758    0.12242
    15   H       0.87758                 0.87758    0.12242

 Total charge composition, AO contributions:

   CEN ATOM SHL      SPHERICAL COMPONENTS
     1   C  1s       1.99108
     1   C  2s       1.03709
     1   C  2p       1.04424    1.15696    1.16895

     2   C  1s       1.99274
     2   C  2s       0.93345
     2   C  2p       1.01276    0.80500    1.01424

     3   O  1s       1.99714
     3   O  2s       1.64095
     3   O  2p       1.46049    1.47911    1.95064

     4   H  1s       0.67527

     5   H  1s       0.87126

     6   H  1s       0.86267

     7   H  1s       0.86267

     8   C  1s       1.99118
     8   C  2s       1.04370
     8   C  2p       1.14003    1.14103    1.09628

     9   C  1s       1.99118
     9   C  2s       1.04370
     9   C  2p       1.14003    1.14103    1.09628

    10   H  1s       0.86310

    11   H  1s       0.86310

    12   H  1s       0.86874

    13   H  1s       0.86874

    14   H  1s       0.87758

    15   H  1s       0.87758

 Summary of localized orbital composition:   [THRPRINT= 0.020]

   ORB  GRP  ORB.ENERGY      CENTERS/CHARGES
     1   1   -18.604591      O  3   2.000
     2   1    -9.867682      C  2   2.000
     3   1    -9.784769      C  8   2.000
     4   1    -9.784769      C  9   2.000
     5   1    -9.778990      C  1   2.000
     6   1    -0.683223      O  3   1.327   H  4   0.663
     7   1    -0.647965      O  3   1.266   C  2   0.715
     8   1    -0.513497      C  9   1.009   C  2   0.975
     9   1    -0.513497      C  8   1.009   C  2   0.975
    10   1    -0.513114      C  1   0.991   C  2   0.983   (other: 0.026)
    11   1    -0.478541      O  3   1.980   (other: 0.020)
    12   1    -0.447554      C  8   1.127   H 12   0.858
    13   1    -0.447554      C  9   1.127   H 13   0.858
    14   1    -0.446657      C  9   1.118   H 15   0.870
    15   1    -0.446657      C  8   1.118   H 14   0.870
    16   1    -0.443533      C  1   1.122   H  5   0.864
    17   1    -0.441932      C  9   1.135   H 11   0.854
    18   1    -0.441932      C  8   1.135   H 10   0.854
    19   1    -0.437245      C  1   1.134   H  7   0.854
    20   1    -0.437245      C  1   1.134   H  6   0.854
    21   1    -0.235117      O  3   1.951   (other: 0.049)

 Localized orbitals saved to record      2100.2  (orbital set 2)


 **********************************************************************************************************************************
 DATASETS  * FILE   NREC   LENGTH (MB)   RECORD NAMES
              1      20      122.15       500      610      700      900      950      970     1000      129      960     1100   
                                          VAR    BASINP    GEOM    SYMINP    ZMAT    AOBASIS   BASIS     P2S    ABASIS      S 
                                         1400     1410     1200     1210     1080     1600     1650     1300     1700     1800   
                                           T        V       H0       H01     AOSYM     SMH    MOLCAS    ERIS     OPER     GRID   

              2       5        3.42       700     1000      520     1800     2100   
                                         GEOM     BASIS   MCVARS    GRID      RKS  

 PROGRAMS   *        TOTAL      IBBA        KS       INT
 CPU TIMES  *        17.56      0.02     13.35      4.03
 REAL TIME  *        23.50 SEC
 DISK USED  *       426.89 MB      
 **********************************************************************************************************************************
 Molecular orbitals read from record     2100.2  Type=RKS/LOCAL(IBO)  
 Occupation numbers read from record     2100.2  Type=RKS/LOCAL(IBO)  
 Orbital energies read from record       2100.2  Type=RKS/LOCAL(IBO)  
 Redundancy group numbers read from rec  2100.2  Type=RKS/LOCAL(IBO)  

 IBBA/SVP energy=      0.000000000000

        KS-SCF  
   -233.42227405
 **********************************************************************************************************************************
 Molpro calculation terminated
