
 Primary working directories    : /local
 Secondary working directories  : /local
 Wavefunction directory         : /local/
 Main file repository           : /local/

 SHA1      : b4a5b34a9e711420743f49e6833241d17c61fb3c
 NAME      : 2099.9.b4a5b34
 ARCHNAME  : linux/x86_64_openmp
 FC        : /cm/shared/languages/GCC-6.1/bin/gfortran
 BLASLIB   : -lblas
 id        : simonbennie

 Nodes     nprocs
 node32-043    1

 Using customized tuning parameters: mindgm=1; mindgv=20; mindgc=4; mindgr=1; noblas=0; minvec=7
 default implementation of scratch files=df  

 memory,500,m
 geomtyp=xyz
 nosym
 noorient
 geometry={
 C         -1.53233        0.02247        0.00000
 C         -0.00192        0.01421        0.00000
 O          0.37239        1.40356        0.00000
 H          1.34248        1.44036        0.00000
 H         -1.92991       -0.99819        0.00000
 H         -1.90797        0.54382       -0.88653
 H         -1.90797        0.54382        0.88653
 C          0.54303       -0.66466       -1.26580
 C          0.54303       -0.66466        1.26580
 H          0.17836       -0.14752       -2.15943
 H          0.17836       -0.14752        2.15943
 H          0.23752       -1.71600       -1.32280
 H          0.23752       -1.71600        1.32280
 H          1.64084       -0.63767       -1.28032
 H          1.64084       -0.63767        1.28032
 }
 basis={ default,tzvp }
 {ks,SOGGA11,direct;wf,42,1,0}
 {ibba,bonds=1}

 Variables initialized (895), CPU time= 0.01 sec
 Commands  initialized (725), CPU time= 0.01 sec, 591 directives.
 Default parameters read. Elapsed time= 5.71 sec

 Checking input...
 Passed
1


                                         ***  PROGRAM SYSTEM MOLPRO  ***
                                       Copyright, TTI GmbH Stuttgart, 2015
                                    Version 2099.9 linked May 26 2017 16:03:21


 **********************************************************************************************************************************
 LABEL *                                                                                 
  64 bit serial version                                                                  DATE: 12-Jun-17          TIME: 17:47:32  
 **********************************************************************************************************************************

 SHA1:             b4a5b34a9e711420743f49e6833241d17c61fb3c
 **********************************************************************************************************************************
 SETTING GEOMTYP        =    XYZ

 Variable memory set to  500000000 words,  buffer space 

 ZSYMEL=NOSYM

 SETTING BASIS          =    TZVP


 Recomputing integrals since basis changed


 Using spherical harmonics

 Library entry C      S def2-TZVP            selected for orbital group  1
 Library entry C      P def2-TZVP            selected for orbital group  1
 Library entry C      D def2-TZVP            selected for orbital group  1
 Library entry C      F def2-TZVP            selected for orbital group  1
 Library entry O      S def2-TZVP            selected for orbital group  2
 Library entry O      P def2-TZVP            selected for orbital group  2
 Library entry O      D def2-TZVP            selected for orbital group  2
 Library entry O      F def2-TZVP            selected for orbital group  2
 Library entry H      S def2-TZVP            selected for orbital group  3
 Library entry H      P def2-TZVP            selected for orbital group  3


 PROGRAM * SEWARD (Integral evaluation for generally contracted gaussian basis sets)     Author: Roland Lindh, 1990

 Geometry written to block  1 of record 700


 Point group  C1  



 ATOMIC COORDINATES

 NR  ATOM    CHARGE       X              Y              Z

   1  C       6.00   -2.895684032    0.042462146    0.000000000
   2  C       6.00   -0.003628274    0.026853008    0.000000000
   3  O       8.00    0.703715112    2.652343999    0.000000000
   4  H       1.00    2.536919528    2.721885921    0.000000000
   5  H       1.00   -3.647001345   -1.886305720    0.000000000
   6  H       1.00   -3.605540754    1.027670861   -1.675298901
   7  H       1.00   -3.605540754    1.027670861    1.675298901
   8  C       6.00    1.026177977   -1.256025366   -2.392015328
   9  C       6.00    1.026177977   -1.256025366    2.392015328
  10  H       1.00    0.337051552   -0.278772398   -4.080731285
  11  H       1.00    0.337051552   -0.278772398    4.080731285
  12  H       1.00    0.448847749   -3.242770030   -2.499729718
  13  H       1.00    0.448847749   -3.242770030    2.499729718
  14  H       1.00    3.100738214   -1.205021658   -2.419454152
  15  H       1.00    3.100738214   -1.205021658    2.419454152

 Bond lengths in Bohr (Angstrom)

 1-2  2.892097881  1-5  2.069933136  1-6  2.069096224  1-7  2.069096224  2-3  2.719106031
     ( 1.530432290)     ( 1.095361444)     ( 1.094918569)     ( 1.094918569)     ( 1.438888946)

  2- 8  2.903104402   2- 9  2.903104402   3- 4  1.834522965   8-10  2.069222119   8-12  2.071730422
       ( 1.536256691)       ( 1.536256691)       ( 0.970787746)       ( 1.094985190)       ( 1.096312526)

  8-14  2.075368508   9-11  2.069222119   9-13  2.071730422   9-15  2.075368508
       ( 1.098237719)       ( 1.094985190)       ( 1.096312526)       ( 1.098237719)

 Bond angles

  1-2-3  104.76902697   1-2-8  110.92255387   1-2-9  110.92255387   2-1-5  110.97328220

  2- 1- 6  110.22090701   2- 1- 7  110.22090701   2- 3- 4  107.25071562   2- 8-10  110.21836376

  2- 8-12  111.57747468   2- 8-14  110.77023896   2- 9-11  110.21836376   2- 9-13  111.57747468

  2- 9-15  110.77023896   3- 2- 8  109.53648747   3- 2- 9  109.53648747   5- 1- 6  108.61190457

  5- 1- 7  108.61190457   6- 1- 7  108.12870271   8- 2- 9  110.96453384  10- 8-12  108.52192632

 10- 8-14  108.08997829  11- 9-13  108.52192632  11- 9-15  108.08997829  12- 8-14  107.54424578

 13- 9-15  107.54424578

 NUCLEAR CHARGE:                   42
 NUMBER OF PRIMITIVE AOS:         335
 NUMBER OF SYMMETRY AOS:          310
 NUMBER OF CONTRACTIONS:          215   ( 215A   )
 NUMBER OF CORE ORBITALS:           5   (   5A   )
 NUMBER OF VALENCE ORBITALS:       30   (  30A   )


 NUCLEAR REPULSION ENERGY  198.77359127


 Eigenvalues of metric

         1 0.262E-03 0.510E-03 0.539E-03 0.594E-03 0.697E-03 0.755E-03 0.210E-02 0.239E-02


 Contracted 2-electron integrals neglected if value below      1.0D-11
 AO integral compression algorithm  1   Integral accuracy      1.0D-11

     977.797 MB (compressed) written to integral file ( 41.7%)


 NUMBER OF SORTED TWO-ELECTRON INTEGRALS:  269595810.     BUFFER LENGTH:  32768
 NUMBER OF SEGMENTS:  17  SEGMENT LENGTH:   15999762      RECORD LENGTH: 524288

 Memory used in sort:      16.56 MW

 SORT1 READ   292827432. AND WROTE   238500613. INTEGRALS IN    690 RECORDS. CPU TIME:     3.83 SEC, REAL TIME:    15.74 SEC
 SORT2 READ   238500613. AND WROTE   269595810. INTEGRALS IN   3730 RECORDS. CPU TIME:     5.76 SEC, REAL TIME:    46.95 SEC

 FILE SIZES:   FILE 1:  1009.7 MBYTE,  FILE 4:  2894.1 MBYTE,   TOTAL:   3903.8 MBYTE

 OPERATOR DM      FOR CENTER  0  COORDINATES:    0.000000    0.000000    0.000000


 **********************************************************************************************************************************
 DATASETS  * FILE   NREC   LENGTH (MB)   RECORD NAMES
              1      19      926.27       500      610      700      900      950      970     1000      129      960     1100   
                                          VAR    BASINP    GEOM    SYMINP    ZMAT    AOBASIS   BASIS     P2S    ABASIS      S 
                                         1400     1410     1200     1210     1080     1600     1650     1300     1700   
                                           T        V       H0       H01     AOSYM     SMH    MOLCAS    ERIS     OPER   

 PROGRAMS   *        TOTAL       INT
 CPU TIMES  *        26.91     26.76
 REAL TIME  *        99.93 SEC
 DISK USED  *         3.90 GB      
 **********************************************************************************************************************************

 Density functional group SOGGA11=XC-SOGGA11
 Functional: XC-SOGGA11(via MFM 1.6)                                           Gradient terms: 1
 Use grid at  1800.2

 Functional: XC-SOGGA11                Factor:  1.0000

 Generated new metagrid on record  1800.2 with target accuracy 1.0D-06 and 54596 points in CPU time    1.7
 Computed new grid on record 1800.1 in CPU time    1.9
  175219 words reserved for DFT integration

 PROGRAM * RKS-SCF (Restricted closed shell Kohn-Sham)     Authors: W. Meyer, H.-J. Werner, P.J. Knowles, 1993

 NUMBER OF ELECTRONS:      21+   21-    SPACE SYMMETRY=1    SPIN SYMMETRY: Singlet 
 CONVERGENCE THRESHOLDS:    1.00E-05 (Density)    1.00E-06 (Energy)
 MAX. NUMBER OF ITERATIONS:       60
 INTERPOLATION TYPE:            DIIS
 INTERPOLATION STEPS:              2 (START)      1 (STEP)
 LEVEL SHIFTS:                  0.00 (CLOSED)  0.00 (OPEN) 



 Use fine grid record 1800.2 for energy threshold  1.0D-06
 Orbital guess generated from atomic densities. Full valence occupancy:   21

 Molecular orbital dump at record        2100.2

 Initial occupancy:  21

 ITERATION    DDIFF          GRAD             ENERGY        2-EL.EN.            DIPOLE MOMENTS         DIIS   ORB.
    1      0.000D+00      0.000D+00      -233.42954376    642.260930    0.70204   -0.80853    0.00000    0    start
    2      0.000D+00      0.949D-02      -232.69633434    588.605171   -0.70854   -0.02256    0.00000    1    diag
    3      0.292D-01      0.159D-01      -233.74075986    624.212047    0.42281   -0.78671    0.00000    2    diag
    4      0.220D-01      0.278D-02      -233.76202267    622.993126    0.32080   -0.42609    0.00000    3    diag
    5      0.319D-02      0.105D-02      -233.76545735    622.971025    0.32615   -0.56672    0.00000    4    diag
    6      0.241D-02      0.631D-03      -233.76692566    623.198091    0.34746   -0.47416    0.00000    5    diag
    7      0.163D-02      0.481D-03      -233.76802475    622.753941    0.33441   -0.46067    0.00000    6    diag
    8      0.138D-02      0.305D-03      -233.76883161    622.630534    0.32210   -0.43991    0.00000    7    diag
    9      0.212D-02      0.241D-03      -233.76929667    622.483863    0.32964   -0.41490    0.00000    8    diag
   10      0.201D-02      0.187D-03      -233.76961482    622.231311    0.31012   -0.38423   -0.00000    9    orth
   11      0.434D-02      0.148D-03      -233.76961676    622.577744    0.33138   -0.42107    0.00000    9    diag
   12      0.170D-02      0.101D-03      -233.76960004    622.188747    0.33382   -0.36906    0.00000    9    diag
   13      0.207D-02      0.165D-03      -233.76973637    622.338828    0.33581   -0.39946   -0.00000    9    diag
   14      0.900D-03      0.562D-04      -233.76975515    622.387872    0.34358   -0.40874   -0.00000    9    diag
   15      0.569D-03      0.229D-04      -233.76975653    622.395307    0.35011   -0.41044    0.00000    9    diag
   16      0.442D-03      0.136D-04      -233.76975776    622.386493    0.34606   -0.40842   -0.00000    9    diag
   17      0.152D-03      0.728D-05      -233.76975789    622.390382    0.34642   -0.40945    0.00000    9    diag
   18      0.726D-04      0.319D-05      -233.76975795    622.384787    0.34672   -0.40887    0.00000    9    diag
   19      0.352D-04      0.238D-05      -233.76975798    622.384233    0.34701   -0.40911   -0.00000    9    fixocc
   20      0.334D-04      0.138D-05      -233.76975800    622.386083    0.34708   -0.40940    0.00000    9    orth
   21      0.286D-04      0.662D-06      -233.76975800    622.385703    0.34709   -0.40942    0.00000    9    diag
   22      0.627D-05      0.438D-06      -233.76975800    622.385474    0.34712   -0.40942    0.00000    0    orth

 Final occupancy:  21

 !RKS STATE 1.1 Energy               -233.769758002757
 Nuclear energy                       198.77359127
 One-electron energy                 -709.67414731
 Two-electron energy                  311.19273684
 Density functional                   -34.06193881     XC-SOGGA11=-34.06193881
 Virial quotient                       -1.00819236
 !RKS STATE 1.1 Dipole moment           0.34712033    -0.40942464     0.00000000
 Dipole moment /Debye                   0.88223409    -1.04058548     0.00000000

 Orbital energies:

         1.1          2.1          3.1          4.1          5.1          6.1          7.1          8.1          9.1         10.1
    -18.763995    -9.968628    -9.894416    -9.894411    -9.889265    -0.926533    -0.716325    -0.626568    -0.625893    -0.516390

        11.1         12.1         13.1         14.1         15.1         16.1         17.1         18.1         19.1         20.1
     -0.443999    -0.408633    -0.406585    -0.369725    -0.357260    -0.341448    -0.328419    -0.316820    -0.311083    -0.283344

        21.1         22.1         23.1
     -0.228162    -0.060613    -0.010757

 HOMO     21.1    -0.228162 =      -6.2086eV
 LUMO     22.1    -0.060613 =      -1.6494eV
 LUMO-HOMO         0.167549 =       4.5592eV


 **********************************************************************************************************************************
 DATASETS  * FILE   NREC   LENGTH (MB)   RECORD NAMES
              1      20      928.02       500      610      700      900      950      970     1000      129      960     1100   
                                          VAR    BASINP    GEOM    SYMINP    ZMAT    AOBASIS   BASIS     P2S    ABASIS      S 
                                         1400     1410     1200     1210     1080     1600     1650     1300     1700     1800   
                                           T        V       H0       H01     AOSYM     SMH    MOLCAS    ERIS     OPER     GRID   

              2       5        3.96       700     1000      520     1800     2100   
                                         GEOM     BASIS   MCVARS    GRID      RKS  

 PROGRAMS   *        TOTAL        KS       INT
 CPU TIMES  *       128.23    101.32     26.76
 REAL TIME  *       208.13 SEC
 DISK USED  *         3.90 GB      
 **********************************************************************************************************************************


 PROGRAM * Intrinsic Basis Bonding Analysis (IBBA)          Author: G. Knizia

 Molecular orbitals read from record     2100.2  Type=RKS/CANONICAL (state 1.1)
 Fock matrix read from record            2100.2  Type=RKS/TOTAL (state 1.1)
 Orbital energies read from record       2100.2  Type=RKS/CANONICAL (state 1.1)
 Density matrix read from record         2100.2  Type=RKS/CHARGE (state 1.1)

 Number of core orbitals:           5 (   5 )
 Number of closed-shell orbitals:  16 (  16 )

 Basis set MINAO-AUTO-PP generated.      Number of basis functions:   35 

 Polarized AO type:                A = (O Ot + (1-O)(1-Ot)) P12
 Orthogonalization method:         Symmetric (Loewdin)
 Localization functional:          L = sum[A,i] <i|n_A|i>^4 -> max

 Localization group 1:  21 orbitals, occupancy  2.000
 Iterative localization: IB/PM,    7 iter; Final gradient 0.55E-08

 Bond order analysis:       [THRPRINT= 0.020]

   CEN ATOM   CEN ATOM     WIBERG.BO      RENORM.BO
     1   C  -   2   C       0.995364       0.992539
     1   C  -   5   H       0.957165       0.986006
     1   C  -   6   H       0.951426       0.978733
     1   C  -   7   H       0.951426       0.978733

     2   C  -   1   C       0.995364       0.992539
     2   C  -   9   C       0.994253       0.972551
     2   C  -   8   C       0.994253       0.972551
     2   C  -   3   O       0.941405       0.946505

     3   O  -   2   C       0.941405       0.946505
     3   O  -   4   H       0.858374       0.972991
     3   O  -   9   C       0.031161       0.015898
     3   O  -   8   C       0.031161       0.015898

     4   H  -   3   O       0.858374       0.972991

     5   H  -   1   C       0.957165       0.986006

     6   H  -   1   C       0.951426       0.978733

     7   H  -   1   C       0.951426       0.978733

     8   C  -   2   C       0.994253       0.972551
     8   C  -  14   H       0.956119       0.979682
     8   C  -  12   H       0.952160       0.978138
     8   C  -  10   H       0.952000       0.978251
     8   C  -   3   O       0.031161       0.015898

     9   C  -   2   C       0.994253       0.972551
     9   C  -  15   H       0.956119       0.979682
     9   C  -  13   H       0.952160       0.978138
     9   C  -  11   H       0.952000       0.978251
     9   C  -   3   O       0.031161       0.015898

    10   H  -   8   C       0.952000       0.978251

    11   H  -   9   C       0.952000       0.978251

    12   H  -   8   C       0.952160       0.978138

    13   H  -   9   C       0.952160       0.978138

    14   H  -   8   C       0.956119       0.979682

    15   H  -   9   C       0.956119       0.979682


 Valency analysis:

   CEN ATOM   TOT.VALENCE
     1   C       3.922756
     2   C       3.936133
     3   O       1.938470
     4   H       0.880146
     5   H       0.977752
     6   H       0.975030
     7   H       0.975030
     8   C       3.926053
     9   C       3.926053
    10   H       0.975229
    11   H       0.975229
    12   H       0.977347
    13   H       0.977347
    14   H       0.979499
    15   H       0.979499

 Total charge composition:

   CEN ATOM         s          p       ELECTRONS ->P.CHARGE
     1   C       3.04578    3.40963      6.45541   -0.45541
     2   C       2.93224    2.82915      5.76139    0.23861
     3   O       3.64485    4.91195      8.55680   -0.55680
     4   H       0.65380                 0.65380    0.34620
     5   H       0.85084                 0.85084    0.14916
     6   H       0.84198                 0.84198    0.15802
     7   H       0.84198                 0.84198    0.15802
     8   C       3.05386    3.41611      6.46997   -0.46997
     9   C       3.05386    3.41611      6.46997   -0.46997
    10   H       0.84261                 0.84261    0.15739
    11   H       0.84261                 0.84261    0.15739
    12   H       0.84949                 0.84949    0.15051
    13   H       0.84949                 0.84949    0.15051
    14   H       0.85682                 0.85682    0.14318
    15   H       0.85682                 0.85682    0.14318

 Total charge composition, AO contributions:

   CEN ATOM SHL      SPHERICAL COMPONENTS
     1   C  1s       1.99163
     1   C  2s       1.05415
     1   C  2p       1.03982    1.17882    1.19099

     2   C  1s       1.99322
     2   C  2s       0.93902
     2   C  2p       1.01408    0.79886    1.01621

     3   O  1s       1.99728
     3   O  2s       1.64757
     3   O  2p       1.47806    1.48439    1.94949

     4   H  1s       0.65380

     5   H  1s       0.85084

     6   H  1s       0.84198

     7   H  1s       0.84198

     8   C  1s       1.99172
     8   C  2s       1.06214
     8   C  2p       1.15883    1.15714    1.10014

     9   C  1s       1.99172
     9   C  2s       1.06214
     9   C  2p       1.15883    1.15714    1.10014

    10   H  1s       0.84261

    11   H  1s       0.84261

    12   H  1s       0.84949

    13   H  1s       0.84949

    14   H  1s       0.85682

    15   H  1s       0.85682

 Summary of localized orbital composition:   [THRPRINT= 0.020]

   ORB  GRP  ORB.ENERGY      CENTERS/CHARGES
     1   1   -18.613586      O  3   2.000
     2   1    -9.879961      C  2   2.000
     3   1    -9.782332      C  8   2.000
     4   1    -9.782332      C  9   2.000
     5   1    -9.776485      C  1   2.000
     6   1    -0.702235      O  3   1.349   H  4   0.641
     7   1    -0.660138      O  3   1.274   C  2   0.706   (other: 0.020)
     8   1    -0.526184      C  8   1.006   C  2   0.977
     9   1    -0.526184      C  9   1.006   C  2   0.977
    10   1    -0.525823      C  1   0.987   C  2   0.986   (other: 0.027)
    11   1    -0.501793      O  3   1.980   (other: 0.020)
    12   1    -0.458273      C  9   1.146   H 13   0.838
    13   1    -0.458273      C  8   1.146   H 12   0.838
    14   1    -0.457098      C  9   1.139   H 15   0.848
    15   1    -0.457098      C  8   1.139   H 14   0.848
    16   1    -0.454515      C  1   1.142   H  5   0.843
    17   1    -0.452517      C  8   1.155   H 10   0.833
    18   1    -0.452517      C  9   1.155   H 11   0.833
    19   1    -0.448373      C  1   1.155   H  7   0.833
    20   1    -0.448373      C  1   1.155   H  6   0.833
    21   1    -0.253811      O  3   1.949   (other: 0.051)

 Localized orbitals saved to record      2100.2  (orbital set 2)


 **********************************************************************************************************************************
 DATASETS  * FILE   NREC   LENGTH (MB)   RECORD NAMES
              1      20      928.02       500      610      700      900      950      970     1000      129      960     1100   
                                          VAR    BASINP    GEOM    SYMINP    ZMAT    AOBASIS   BASIS     P2S    ABASIS      S 
                                         1400     1410     1200     1210     1080     1600     1650     1300     1700     1800   
                                           T        V       H0       H01     AOSYM     SMH    MOLCAS    ERIS     OPER     GRID   

              2       5        4.33       700     1000      520     1800     2100   
                                         GEOM     BASIS   MCVARS    GRID      RKS  

 PROGRAMS   *        TOTAL      IBBA        KS       INT
 CPU TIMES  *       128.30      0.07    101.32     26.76
 REAL TIME  *       208.42 SEC
 DISK USED  *         3.90 GB      
 **********************************************************************************************************************************
 Molecular orbitals read from record     2100.2  Type=RKS/LOCAL(IBO)  
 Occupation numbers read from record     2100.2  Type=RKS/LOCAL(IBO)  
 Orbital energies read from record       2100.2  Type=RKS/LOCAL(IBO)  
 Redundancy group numbers read from rec  2100.2  Type=RKS/LOCAL(IBO)  

 IBBA/TZVP energy=      0.000000000000

        KS-SCF  
   -233.76975800
 **********************************************************************************************************************************
 Molpro calculation terminated
