
 Primary working directories    : /tmp/sb13343
 Secondary working directories  : /tmp/sb13343
 Wavefunction directory         : /panfs/panasas01/chem/sb13343/wfu/
 Main file repository           : /tmp/sb13343/

 SHA1      : b4a5b34a9e711420743f49e6833241d17c61fb3c
 NAME      : 2099.9.b4a5b34
 ARCHNAME  : linux/x86_64_openmp
 FC        : /cm/shared/languages/GCC-6.1/bin/gfortran
 BLASLIB   : -lblas
 id        : simonbennie

 Nodes     nprocs
 node32-007    1

 Using customized tuning parameters: mindgm=1; mindgv=20; mindgc=4; mindgr=1; noblas=0; minvec=7
 default implementation of scratch files=df  

 memory,500,m
 geomtyp=xyz
 nosym
 noorient
 geometry={
 C         -1.53233        0.02247        0.00000
 C         -0.00192        0.01421        0.00000
 O          0.37239        1.40356        0.00000
 H          1.34248        1.44036        0.00000
 H         -1.92991       -0.99819        0.00000
 H         -1.90797        0.54382       -0.88653
 H         -1.90797        0.54382        0.88653
 C          0.54303       -0.66466       -1.26580
 C          0.54303       -0.66466        1.26580
 H          0.17836       -0.14752       -2.15943
 H          0.17836       -0.14752        2.15943
 H          0.23752       -1.71600       -1.32280
 H          0.23752       -1.71600        1.32280
 H          1.64084       -0.63767       -1.28032
 H          1.64084       -0.63767        1.28032
 }
 basis={ default,svp }
 {ks,B97,direct;wf,42,1,0}
 {ibba,bonds=1}

 Variables initialized (895), CPU time= 0.00 sec
 Commands  initialized (725), CPU time= 0.02 sec, 591 directives.
 Default parameters read. Elapsed time= 0.08 sec

 Checking input...
 Passed
1


                                         ***  PROGRAM SYSTEM MOLPRO  ***
                                       Copyright, TTI GmbH Stuttgart, 2015
                                    Version 2099.9 linked May 26 2017 16:03:21


 **********************************************************************************************************************************
 LABEL *                                                                                 
  64 bit serial version                                                                  DATE: 09-Jun-17          TIME: 03:25:31  
 **********************************************************************************************************************************

 SHA1:             b4a5b34a9e711420743f49e6833241d17c61fb3c
 **********************************************************************************************************************************
 SETTING GEOMTYP        =    XYZ

 Variable memory set to  500000000 words,  buffer space 

 ZSYMEL=NOSYM

 SETTING BASIS          =    SVP


 Recomputing integrals since basis changed


 Using spherical harmonics

 Library entry C      S def2-SVP             selected for orbital group  1
 Library entry C      P def2-SVP             selected for orbital group  1
 Library entry C      D def2-SVP             selected for orbital group  1
 Library entry O      S def2-SVP             selected for orbital group  2
 Library entry O      P def2-SVP             selected for orbital group  2
 Library entry O      D def2-SVP             selected for orbital group  2
 Library entry H      S def2-SVP             selected for orbital group  3
 Library entry H      P def2-SVP             selected for orbital group  3


 PROGRAM * SEWARD (Integral evaluation for generally contracted gaussian basis sets)     Author: Roland Lindh, 1990

 Geometry written to block  1 of record 700


 Point group  C1  



 ATOMIC COORDINATES

 NR  ATOM    CHARGE       X              Y              Z

   1  C       6.00   -2.895684032    0.042462146    0.000000000
   2  C       6.00   -0.003628274    0.026853008    0.000000000
   3  O       8.00    0.703715112    2.652343999    0.000000000
   4  H       1.00    2.536919528    2.721885921    0.000000000
   5  H       1.00   -3.647001345   -1.886305720    0.000000000
   6  H       1.00   -3.605540754    1.027670861   -1.675298901
   7  H       1.00   -3.605540754    1.027670861    1.675298901
   8  C       6.00    1.026177977   -1.256025366   -2.392015328
   9  C       6.00    1.026177977   -1.256025366    2.392015328
  10  H       1.00    0.337051552   -0.278772398   -4.080731285
  11  H       1.00    0.337051552   -0.278772398    4.080731285
  12  H       1.00    0.448847749   -3.242770030   -2.499729718
  13  H       1.00    0.448847749   -3.242770030    2.499729718
  14  H       1.00    3.100738214   -1.205021658   -2.419454152
  15  H       1.00    3.100738214   -1.205021658    2.419454152

 Bond lengths in Bohr (Angstrom)

 1-2  2.892097881  1-5  2.069933136  1-6  2.069096224  1-7  2.069096224  2-3  2.719106031
     ( 1.530432290)     ( 1.095361444)     ( 1.094918569)     ( 1.094918569)     ( 1.438888946)

  2- 8  2.903104402   2- 9  2.903104402   3- 4  1.834522965   8-10  2.069222119   8-12  2.071730422
       ( 1.536256691)       ( 1.536256691)       ( 0.970787746)       ( 1.094985190)       ( 1.096312526)

  8-14  2.075368508   9-11  2.069222119   9-13  2.071730422   9-15  2.075368508
       ( 1.098237719)       ( 1.094985190)       ( 1.096312526)       ( 1.098237719)

 Bond angles

  1-2-3  104.76902697   1-2-8  110.92255387   1-2-9  110.92255387   2-1-5  110.97328220

  2- 1- 6  110.22090701   2- 1- 7  110.22090701   2- 3- 4  107.25071562   2- 8-10  110.21836376

  2- 8-12  111.57747468   2- 8-14  110.77023896   2- 9-11  110.21836376   2- 9-13  111.57747468

  2- 9-15  110.77023896   3- 2- 8  109.53648747   3- 2- 9  109.53648747   5- 1- 6  108.61190457

  5- 1- 7  108.61190457   6- 1- 7  108.12870271   8- 2- 9  110.96453384  10- 8-12  108.52192632

 10- 8-14  108.08997829  11- 9-13  108.52192632  11- 9-15  108.08997829  12- 8-14  107.54424578

 13- 9-15  107.54424578

 NUCLEAR CHARGE:                   42
 NUMBER OF PRIMITIVE AOS:         195
 NUMBER OF SYMMETRY AOS:          190
 NUMBER OF CONTRACTIONS:          120   ( 120A   )
 NUMBER OF CORE ORBITALS:           5   (   5A   )
 NUMBER OF VALENCE ORBITALS:       30   (  30A   )


 NUCLEAR REPULSION ENERGY  198.77359127


 Eigenvalues of metric

         1 0.176E-02 0.546E-02 0.548E-02 0.123E-01 0.248E-01 0.256E-01 0.256E-01 0.275E-01


 Contracted 2-electron integrals neglected if value below      1.0D-11
 AO integral compression algorithm  1   Integral accuracy      1.0D-11

     101.974 MB (compressed) written to integral file ( 44.9%)


 NUMBER OF SORTED TWO-ELECTRON INTEGRALS:   26357430.     BUFFER LENGTH:  32768
 NUMBER OF SEGMENTS:   2  SEGMENT LENGTH:   15997996      RECORD LENGTH: 524288

 Memory used in sort:      16.56 MW

 SORT1 READ    28411733. AND WROTE    24096425. INTEGRALS IN     70 RECORDS. CPU TIME:     0.37 SEC, REAL TIME:     0.74 SEC
 SORT2 READ    24096425. AND WROTE    26357430. INTEGRALS IN    389 RECORDS. CPU TIME:     0.63 SEC, REAL TIME:     4.27 SEC

 FILE SIZES:   FILE 1:   132.7 MBYTE,  FILE 4:   293.6 MBYTE,   TOTAL:    426.4 MBYTE

 OPERATOR DM      FOR CENTER  0  COORDINATES:    0.000000    0.000000    0.000000


 **********************************************************************************************************************************
 DATASETS  * FILE   NREC   LENGTH (MB)   RECORD NAMES
              1      19      120.44       500      610      700      900      950      970     1000      129      960     1100   
                                          VAR    BASINP    GEOM    SYMINP    ZMAT    AOBASIS   BASIS     P2S    ABASIS      S 
                                         1400     1410     1200     1210     1080     1600     1650     1300     1700   
                                           T        V       H0       H01     AOSYM     SMH    MOLCAS    ERIS     OPER   

 PROGRAMS   *        TOTAL       INT
 CPU TIMES  *         4.17      4.02
 REAL TIME  *         8.80 SEC
 DISK USED  *       426.89 MB      
 **********************************************************************************************************************************

 Density functional group B97=B97DF
 Functional: B97DF(Automatically generated (new) B97DF)                        Gradient terms: 1
 Use grid at  1800.2


 Exact exchange will be calculated, factor:  0.1943

 Functional: B97DF                     Factor:  1.0000

 Generated new metagrid on record  1800.2 with target accuracy 1.0D-06 and 53396 points in CPU time    1.7
 Computed new grid on record 1800.1 in CPU time    1.9
   99539 words reserved for DFT integration

 PROGRAM * RKS-SCF (Restricted closed shell Kohn-Sham)     Authors: W. Meyer, H.-J. Werner, P.J. Knowles, 1993

 NUMBER OF ELECTRONS:      21+   21-    SPACE SYMMETRY=1    SPIN SYMMETRY: Singlet 
 CONVERGENCE THRESHOLDS:    1.00E-05 (Density)    1.00E-06 (Energy)
 MAX. NUMBER OF ITERATIONS:       60
 INTERPOLATION TYPE:            DIIS
 INTERPOLATION STEPS:              2 (START)      1 (STEP)
 LEVEL SHIFTS:                  0.00 (CLOSED)  0.00 (OPEN) 



 Use fine grid record 1800.2 for energy threshold  1.0D-06
 Orbital guess generated from atomic densities. Full valence occupancy:   21

 Molecular orbital dump at record        2100.2

 Initial occupancy:  21

 ITERATION    DDIFF          GRAD             ENERGY        2-EL.EN.            DIPOLE MOMENTS         DIIS   ORB.
    1      0.000D+00      0.000D+00      -233.22762072    622.963692    0.70300   -0.83005    0.00000    0    start
    2      0.000D+00      0.942D-02      -233.14701116    592.370089   -0.07994    0.07311    0.00000    1    diag
    3      0.205D-01      0.115D-01      -233.41980880    609.537615    0.38801   -0.53683    0.00000    2    diag
    4      0.124D-01      0.945D-03      -233.42111955    609.120876    0.36346   -0.42814    0.00000    3    diag
    5      0.970D-03      0.349D-03      -233.42132091    609.101120    0.36628   -0.46732    0.00000    4    diag
    6      0.323D-03      0.767D-04      -233.42133036    609.163810    0.36724   -0.46199    0.00000    5    diag
    7      0.799D-04      0.284D-04      -233.42133183    609.153074    0.36721   -0.46149    0.00000    6    diag
    8      0.228D-04      0.257D-05      -233.42133184    609.156291    0.36722   -0.46210    0.00000    7    diag
    9      0.364D-05      0.558D-06      -233.42133184    609.156186    0.36725   -0.46183    0.00000    0    orth

 Final occupancy:  21

 !RKS STATE 1.1 Energy               -233.421331840393
 Nuclear energy                       198.77359127
 One-electron energy                 -709.14370008
 Two-electron energy                  304.57809276
 SCF exchange energy                  -32.48614852     Factor= 0.1943
 Density functional                   -27.62931579     B97DF=-27.62931579
 Virial quotient                       -1.01083672
 !RKS STATE 1.1 Dipole moment           0.36725000    -0.46183256     0.00000000
 Dipole moment /Debye                   0.93339525    -1.17378440     0.00000000

 Orbital energies:

         1.1          2.1          3.1          4.1          5.1          6.1          7.1          8.1          9.1         10.1
    -19.101258   -10.223892   -10.162644   -10.162627   -10.157139    -0.996853    -0.775873    -0.681628    -0.680436    -0.558927

        11.1         12.1         13.1         14.1         15.1         16.1         17.1         18.1         19.1         20.1
     -0.482593    -0.446051    -0.444146    -0.405745    -0.392779    -0.374642    -0.362561    -0.348700    -0.343491    -0.312350

        21.1         22.1         23.1
     -0.260954     0.046506     0.096099

 HOMO     21.1    -0.260954 =      -7.1009eV
 LUMO     22.1     0.046506 =       1.2655eV
 LUMO-HOMO         0.307459 =       8.3664eV


 **********************************************************************************************************************************
 DATASETS  * FILE   NREC   LENGTH (MB)   RECORD NAMES
              1      20      122.15       500      610      700      900      950      970     1000      129      960     1100   
                                          VAR    BASINP    GEOM    SYMINP    ZMAT    AOBASIS   BASIS     P2S    ABASIS      S 
                                         1400     1410     1200     1210     1080     1600     1650     1300     1700     1800   
                                           T        V       H0       H01     AOSYM     SMH    MOLCAS    ERIS     OPER     GRID   

              2       5        3.30       700     1000      520     1800     2100   
                                         GEOM     BASIS   MCVARS    GRID      RKS  

 PROGRAMS   *        TOTAL        KS       INT
 CPU TIMES  *        19.37     15.20      4.02
 REAL TIME  *        24.59 SEC
 DISK USED  *       426.89 MB      
 **********************************************************************************************************************************


 PROGRAM * Intrinsic Basis Bonding Analysis (IBBA)          Author: G. Knizia

 Molecular orbitals read from record     2100.2  Type=RKS/CANONICAL (state 1.1)
 Fock matrix read from record            2100.2  Type=RKS/TOTAL (state 1.1)
 Orbital energies read from record       2100.2  Type=RKS/CANONICAL (state 1.1)
 Density matrix read from record         2100.2  Type=RKS/CHARGE (state 1.1)

 Number of core orbitals:           5 (   5 )
 Number of closed-shell orbitals:  16 (  16 )

 Basis set MINAO-AUTO-PP generated.      Number of basis functions:   35 

 Polarized AO type:                A = (O Ot + (1-O)(1-Ot)) P12
 Orthogonalization method:         Symmetric (Loewdin)
 Localization functional:          L = sum[A,i] <i|n_A|i>^4 -> max

 Localization group 1:  21 orbitals, occupancy  2.000
 Iterative localization: IB/PM,    7 iter; Final gradient 0.39E-08

 Bond order analysis:       [THRPRINT= 0.020]

   CEN ATOM   CEN ATOM     WIBERG.BO      RENORM.BO
     1   C  -   2   C       0.994790       0.992535
     1   C  -   5   H       0.965625       0.987245
     1   C  -   6   H       0.960854       0.982087
     1   C  -   7   H       0.960854       0.982087

     2   C  -   1   C       0.994790       0.992535
     2   C  -   9   C       0.993712       0.974836
     2   C  -   8   C       0.993712       0.974836
     2   C  -   3   O       0.941094       0.953705

     3   O  -   2   C       0.941094       0.953705
     3   O  -   4   H       0.872745       0.977514
     3   O  -   8   C       0.027521       0.014106
     3   O  -   9   C       0.027521       0.014106

     4   H  -   3   O       0.872745       0.977514

     5   H  -   1   C       0.965625       0.987245

     6   H  -   1   C       0.960854       0.982087

     7   H  -   1   C       0.960854       0.982087

     8   C  -   2   C       0.993712       0.974836
     8   C  -  14   H       0.964892       0.982645
     8   C  -  12   H       0.961557       0.982144
     8   C  -  10   H       0.961364       0.981906
     8   C  -   3   O       0.027521       0.014106

     9   C  -   2   C       0.993712       0.974836
     9   C  -  15   H       0.964892       0.982645
     9   C  -  13   H       0.961557       0.982144
     9   C  -  11   H       0.961364       0.981906
     9   C  -   3   O       0.027521       0.014106

    10   H  -   8   C       0.961364       0.981906

    11   H  -   9   C       0.961364       0.981906

    12   H  -   8   C       0.961557       0.982144

    13   H  -   9   C       0.961557       0.982144

    14   H  -   8   C       0.964892       0.982645

    15   H  -   9   C       0.964892       0.982645


 Valency analysis:

   CEN ATOM   TOT.VALENCE
     1   C       3.941498
     2   C       3.934258
     3   O       1.934593
     4   H       0.891438
     5   H       0.984201
     6   H       0.981612
     7   H       0.981612
     8   C       3.943913
     9   C       3.943913
    10   H       0.981672
    11   H       0.981672
    12   H       0.983293
    13   H       0.983293
    14   H       0.985581
    15   H       0.985581

 Total charge composition:

   CEN ATOM         s          p       ELECTRONS ->P.CHARGE
     1   C       3.02458    3.36691      6.39149   -0.39149
     2   C       2.92333    2.82364      5.74697    0.25303
     3   O       3.63432    4.91256      8.54688   -0.54688
     4   H       0.67051                 0.67051    0.32949
     5   H       0.87430                 0.87430    0.12570
     6   H       0.86440                 0.86440    0.13560
     7   H       0.86440                 0.86440    0.13560
     8   C       3.03071    3.37453      6.40524   -0.40524
     9   C       3.03071    3.37453      6.40524   -0.40524
    10   H       0.86462                 0.86462    0.13538
    11   H       0.86462                 0.86462    0.13538
    12   H       0.87075                 0.87075    0.12925
    13   H       0.87075                 0.87075    0.12925
    14   H       0.87992                 0.87992    0.12008
    15   H       0.87992                 0.87992    0.12008

 Total charge composition, AO contributions:

   CEN ATOM SHL      SPHERICAL COMPONENTS
     1   C  1s       1.99092
     1   C  2s       1.03365
     1   C  2p       1.04378    1.15540    1.16773

     2   C  1s       1.99258
     2   C  2s       0.93075
     2   C  2p       1.01258    0.79801    1.01305

     3   O  1s       1.99708
     3   O  2s       1.63723
     3   O  2p       1.46745    1.48879    1.95631

     4   H  1s       0.67051

     5   H  1s       0.87430

     6   H  1s       0.86440

     7   H  1s       0.86440

     8   C  1s       1.99102
     8   C  2s       1.03969
     8   C  2p       1.13855    1.13997    1.09601

     9   C  1s       1.99102
     9   C  2s       1.03969
     9   C  2p       1.13855    1.13997    1.09601

    10   H  1s       0.86462

    11   H  1s       0.86462

    12   H  1s       0.87075

    13   H  1s       0.87075

    14   H  1s       0.87992

    15   H  1s       0.87992

 Summary of localized orbital composition:   [THRPRINT= 0.020]

   ORB  GRP  ORB.ENERGY      CENTERS/CHARGES
     1   1   -18.947021      O  3   2.000
     2   1   -10.132383      C  2   2.000
     3   1   -10.048364      C  8   2.000
     4   1   -10.048364      C  9   2.000
     5   1   -10.042062      C  1   2.000
     6   1    -0.749616      O  3   1.331   H  4   0.660
     7   1    -0.713241      O  3   1.274   C  2   0.709
     8   1    -0.568432      C  8   1.009   C  2   0.976
     9   1    -0.568432      C  9   1.009   C  2   0.976
    10   1    -0.567505      C  1   0.991   C  2   0.985   (other: 0.024)
    11   1    -0.544757      O  3   1.982
    12   1    -0.499352      C  9   1.125   H 13   0.861
    13   1    -0.499352      C  8   1.125   H 12   0.861
    14   1    -0.498223      C  9   1.116   H 15   0.873
    15   1    -0.498223      C  8   1.116   H 14   0.873
    16   1    -0.494836      C  1   1.120   H  5   0.867
    17   1    -0.493520      C  8   1.133   H 10   0.857
    18   1    -0.493520      C  9   1.133   H 11   0.857
    19   1    -0.488348      C  1   1.133   H  7   0.856
    20   1    -0.488348      C  1   1.133   H  6   0.856
    21   1    -0.291389      O  3   1.956   (other: 0.044)

 Localized orbitals saved to record      2100.2  (orbital set 2)


 **********************************************************************************************************************************
 DATASETS  * FILE   NREC   LENGTH (MB)   RECORD NAMES
              1      20      122.15       500      610      700      900      950      970     1000      129      960     1100   
                                          VAR    BASINP    GEOM    SYMINP    ZMAT    AOBASIS   BASIS     P2S    ABASIS      S 
                                         1400     1410     1200     1210     1080     1600     1650     1300     1700     1800   
                                           T        V       H0       H01     AOSYM     SMH    MOLCAS    ERIS     OPER     GRID   

              2       5        3.42       700     1000      520     1800     2100   
                                         GEOM     BASIS   MCVARS    GRID      RKS  

 PROGRAMS   *        TOTAL      IBBA        KS       INT
 CPU TIMES  *        19.42      0.05     15.20      4.02
 REAL TIME  *        24.74 SEC
 DISK USED  *       426.89 MB      
 **********************************************************************************************************************************
 Molecular orbitals read from record     2100.2  Type=RKS/LOCAL(IBO)  
 Occupation numbers read from record     2100.2  Type=RKS/LOCAL(IBO)  
 Orbital energies read from record       2100.2  Type=RKS/LOCAL(IBO)  
 Redundancy group numbers read from rec  2100.2  Type=RKS/LOCAL(IBO)  

 IBBA/SVP energy=      0.000000000000

        KS-SCF  
   -233.42133184
 **********************************************************************************************************************************
 Molpro calculation terminated
