
 Primary working directories    : /tmp/sb13343
 Secondary working directories  : /tmp/sb13343
 Wavefunction directory         : /panfs/panasas01/chem/sb13343/wfu/
 Main file repository           : /tmp/sb13343/

 SHA1      : b4a5b34a9e711420743f49e6833241d17c61fb3c
 NAME      : 2099.9.b4a5b34
 ARCHNAME  : linux/x86_64_openmp
 FC        : /cm/shared/languages/GCC-6.1/bin/gfortran
 BLASLIB   : -lblas
 id        : simonbennie

 Nodes     nprocs
 node32-027    1

 Using customized tuning parameters: mindgm=1; mindgv=20; mindgc=4; mindgr=1; noblas=0; minvec=7
 default implementation of scratch files=df  

 memory,500,m
 geomtyp=xyz
 nosym
 noorient
 geometry={
 C          0.00000        0.00000        0.00000
 C          1.54025       -0.00009       -0.00004
 C         -0.51333        1.45219       -0.00005
 C         -0.51349       -0.72611       -1.25756
 C         -0.51342       -0.72599        1.25765
 H         -1.60999        1.48489       -0.00002
 H         -1.61015       -0.74237       -1.28580
 H         -1.61008       -0.74225        1.28596
 H         -0.16312        1.99638        0.88591
 H         -0.16316        1.99630       -0.88608
 H         -0.16333       -0.23096       -2.17186
 H         -0.16339       -1.76551       -1.28580
 H         -0.16332       -1.76539        1.28596
 H         -0.16320       -0.23077        2.17189
 H          1.93652       -1.02316       -0.00001
 H          1.93658        0.51138       -0.88607
 H          1.93663        0.51146        0.88592
 }
 basis={ default,svp }
 {ks,MM06,direct;wf,42,1,0}
 {ibba,bonds=1}

 Variables initialized (895), CPU time= 0.00 sec
 Commands  initialized (725), CPU time= 0.02 sec, 591 directives.
 Default parameters read. Elapsed time= 0.08 sec

 Checking input...
 Passed
1


                                         ***  PROGRAM SYSTEM MOLPRO  ***
                                       Copyright, TTI GmbH Stuttgart, 2015
                                    Version 2099.9 linked May 26 2017 16:03:21


 **********************************************************************************************************************************
 LABEL *                                                                                 
  64 bit serial version                                                                  DATE: 08-Jun-17          TIME: 22:27:40  
 **********************************************************************************************************************************

 SHA1:             b4a5b34a9e711420743f49e6833241d17c61fb3c
 **********************************************************************************************************************************
 SETTING GEOMTYP        =    XYZ

 Variable memory set to  500000000 words,  buffer space 

 ZSYMEL=NOSYM

 SETTING BASIS          =    SVP


 Recomputing integrals since basis changed


 Using spherical harmonics

 Library entry C      S def2-SVP             selected for orbital group  1
 Library entry C      P def2-SVP             selected for orbital group  1
 Library entry C      D def2-SVP             selected for orbital group  1
 Library entry H      S def2-SVP             selected for orbital group  2
 Library entry H      P def2-SVP             selected for orbital group  2


 PROGRAM * SEWARD (Integral evaluation for generally contracted gaussian basis sets)     Author: Roland Lindh, 1990

 Geometry written to block  1 of record 700


 Point group  C1  



 ATOMIC COORDINATES

 NR  ATOM    CHARGE       X              Y              Z

   1  C       6.00    0.000000000    0.000000000    0.000000000
   2  C       6.00    2.910650663   -0.000170075   -0.000075589
   3  C       6.00   -0.970053112    2.744241381   -0.000094486
   4  C       6.00   -0.970355468   -1.372149036   -2.376443985
   5  C       6.00   -0.970223187   -1.371922269    2.376614061
   6  H       1.00   -3.042440163    2.806035425   -0.000037795
   7  H       1.00   -3.042742519   -1.402875983   -2.429809851
   8  H       1.00   -3.042610239   -1.402649216    2.430112207
   9  H       1.00   -0.308252125    3.772611441    1.674127271
  10  H       1.00   -0.308327714    3.772460262   -1.674448524
  11  H       1.00   -0.308648968   -0.436451146   -4.104220581
  12  H       1.00   -0.308762351   -3.336330370   -2.429809851
  13  H       1.00   -0.308630071   -3.336103603    2.430112207
  14  H       1.00   -0.308403304   -0.436092098    4.104277273
  15  H       1.00    3.659492435   -1.933492182   -0.000018897
  16  H       1.00    3.659605818    0.966368146   -1.674429627
  17  H       1.00    3.659700305    0.966519324    1.674146168

 Bond lengths in Bohr (Angstrom)

  1- 2  2.910650669   1- 3  2.910646630   1- 4  2.910647475   1- 5  2.910635350   2-15  2.073282028
       ( 1.540250003)       ( 1.540247866)       ( 1.540248313)       ( 1.540241896)       ( 1.097133601)

  2-16  2.073304464   2-17  2.073302258   3- 6  2.073308129   3- 9  2.073293037   3-10  2.073300754
       ( 1.097145474)       ( 1.097144306)       ( 1.097147413)       ( 1.097139427)       ( 1.097143510)

  4- 7  2.073301752   4-11  2.073306055   4-12  2.073297296   5- 8  2.073305161   5-13  2.073300706
       ( 1.097144038)       ( 1.097146316)       ( 1.097141681)       ( 1.097145842)       ( 1.097143485)

  5-14  2.073307464
       ( 1.097147061)

 Bond angles

  1- 2-15  111.17643746   1- 2-16  111.17582452   1- 2-17  111.17607088   1- 3- 6  111.17575783

  1- 3- 9  111.17644989   1- 3-10  111.17611121   1- 4- 7  111.17614317   1- 4-11  111.17631877

  1- 4-12  111.17675056   1- 5- 8  111.17663037   1- 5-13  111.17645588   1- 5-14  111.17672823

  2-1-3  109.47117711   2-1-4  109.47117360   2-1-5  109.47107360   3-1-4  109.47144919

  3- 1- 5  109.47121161   4- 1- 5  109.47123870   6- 3- 9  107.71338639   6- 3-10  107.71391335

  7- 4-11  107.71323113   7- 4-12  107.71354587   8- 5-13  107.71328790   8- 5-14  107.71342022

  9- 3-10  107.71420977  11- 4-12  107.71378459  13- 5-14  107.71321488  15- 2-16  107.71365571

 15- 2-17  107.71411853  16- 2-17  107.71372051

 NUCLEAR CHARGE:                   42
 NUMBER OF PRIMITIVE AOS:         209
 NUMBER OF SYMMETRY AOS:          204
 NUMBER OF CONTRACTIONS:          130   ( 130A   )
 NUMBER OF CORE ORBITALS:           5   (   5A   )
 NUMBER OF VALENCE ORBITALS:       32   (  32A   )


 NUCLEAR REPULSION ENERGY  197.66618863


 Eigenvalues of metric

         1 0.175E-02 0.577E-02 0.577E-02 0.577E-02 0.252E-01 0.252E-01 0.252E-01 0.256E-01


 Contracted 2-electron integrals neglected if value below      1.0D-11
 AO integral compression algorithm  1   Integral accuracy      1.0D-11

     139.198 MB (compressed) written to integral file ( 45.3%)


 NUMBER OF SORTED TWO-ELECTRON INTEGRALS:   36256870.     BUFFER LENGTH:  32768
 NUMBER OF SEGMENTS:   3  SEGMENT LENGTH:   15998004      RECORD LENGTH: 524288

 Memory used in sort:      16.56 MW

 SORT1 READ    38373714. AND WROTE    33465425. INTEGRALS IN     97 RECORDS. CPU TIME:     0.48 SEC, REAL TIME:     0.95 SEC
 SORT2 READ    33465425. AND WROTE    36256870. INTEGRALS IN    531 RECORDS. CPU TIME:     0.76 SEC, REAL TIME:     0.99 SEC

 FILE SIZES:   FILE 1:   170.1 MBYTE,  FILE 4:   406.9 MBYTE,   TOTAL:    576.9 MBYTE

 OPERATOR DM      FOR CENTER  0  COORDINATES:    0.000000    0.000000    0.000000


 **********************************************************************************************************************************
 DATASETS  * FILE   NREC   LENGTH (MB)   RECORD NAMES
              1      19      153.85       500      610      700      900      950      970     1000      129      960     1100   
                                          VAR    BASINP    GEOM    SYMINP    ZMAT    AOBASIS   BASIS     P2S    ABASIS      S 
                                         1400     1410     1200     1210     1080     1600     1650     1300     1700   
                                           T        V       H0       H01     AOSYM     SMH    MOLCAS    ERIS     OPER   

 PROGRAMS   *        TOTAL       INT
 CPU TIMES  *         4.99      4.86
 REAL TIME  *        10.50 SEC
 DISK USED  *       577.52 MB      
 **********************************************************************************************************************************

 Density functional group MM06=M06X+M06C
 Functional: M06X(Automatically generated (new) M06X)                          Gradient terms: 2
 Functional: M06C(Automatically generated (new) M06C)                          Gradient terms: 2
 Use grid at  1800.2


 Exact exchange will be calculated, factor:  0.2700

 Functional: M06X                      Factor:  0.7300
 Functional: M06C                      Factor:  1.0000

 Generated new metagrid on record  1800.2 with target accuracy 1.0D-06 and 57016 points in CPU time    1.7
 Computed new grid on record 1800.1 in CPU time    1.9
  206573 words reserved for DFT integration

 PROGRAM * RKS-SCF (Restricted closed shell Kohn-Sham)     Authors: W. Meyer, H.-J. Werner, P.J. Knowles, 1993

 NUMBER OF ELECTRONS:      21+   21-    SPACE SYMMETRY=1    SPIN SYMMETRY: Singlet 
 CONVERGENCE THRESHOLDS:    1.00E-05 (Density)    1.00E-06 (Energy)
 MAX. NUMBER OF ITERATIONS:       60
 INTERPOLATION TYPE:            DIIS
 INTERPOLATION STEPS:              2 (START)      1 (STEP)
 LEVEL SHIFTS:                  0.00 (CLOSED)  0.00 (OPEN) 



 Use fine grid record 1800.2 for energy threshold  1.0D-06
 Orbital guess generated from atomic densities. Full valence occupancy:   21

 Molecular orbital dump at record        2100.2

 Initial occupancy:  21

 ITERATION    DDIFF          GRAD             ENERGY        2-EL.EN.            DIPOLE MOMENTS         DIIS   ORB.
    1      0.000D+00      0.000D+00      -191.50746459    574.736189   -0.00021   -0.00050   -0.00000    0    start
    2      0.000D+00      0.727D-02      -191.40523937    546.252138   -0.01176   -0.01998    0.00001    1    diag
    3      0.184D-01      0.985D-02      -191.65051642    562.766031    0.00030   -0.00594    0.00000    2    diag
    4      0.115D-01      0.673D-03      -191.65136133    562.368570   -0.00091   -0.00751    0.00000    3    diag
    5      0.699D-03      0.258D-03      -191.65150160    562.546835   -0.00131   -0.00756    0.00000    4    diag
    6      0.260D-03      0.201D-04      -191.65150254    562.540030   -0.00113   -0.00731    0.00000    5    diag
    7      0.395D-04      0.388D-05      -191.65150258    562.536731   -0.00124   -0.00740    0.00000    6    diag
    8      0.430D-05      0.271D-06      -191.65150258    562.536536   -0.00119   -0.00737    0.00000    0    orth

 Final occupancy:  21

 !RKS STATE 1.1 Energy               -191.651502577329
 Nuclear energy                       197.66618863
 One-electron energy                 -653.32111087
 Two-electron energy                  281.26826822
 SCF exchange energy                  -29.80264389     Factor= 0.2700
 Density functional                   -17.26484856     M06X=-21.37511010 M06C= -1.66101819
 Virial quotient                       -0.99535211
 !RKS STATE 1.1 Dipole moment          -0.00118523    -0.00737040     0.00000407
 Dipole moment /Debye                  -0.00301235    -0.01873247     0.00001035

 Orbital energies:

         1.1          2.1          3.1          4.1          5.1          6.1          7.1          8.1          9.1         10.1
     -9.915329    -9.900476    -9.900441    -9.900365    -9.900245    -0.760173    -0.620946    -0.620872    -0.620804    -0.474466

        11.1         12.1         13.1         14.1         15.1         16.1         17.1         18.1         19.1         20.1
     -0.399897    -0.399614    -0.399572    -0.349642    -0.349614    -0.310188    -0.310006    -0.309649    -0.273972    -0.273626

        21.1         22.1         23.1
     -0.273468     0.071691     0.131980

 HOMO     21.1    -0.273468 =      -7.4414eV
 LUMO     22.1     0.071691 =       1.9508eV
 LUMO-HOMO         0.345159 =       9.3923eV


 **********************************************************************************************************************************
 DATASETS  * FILE   NREC   LENGTH (MB)   RECORD NAMES
              1      20      155.67       500      610      700      900      950      970     1000      129      960     1100   
                                          VAR    BASINP    GEOM    SYMINP    ZMAT    AOBASIS   BASIS     P2S    ABASIS      S 
                                         1400     1410     1200     1210     1080     1600     1650     1300     1700     1800   
                                           T        V       H0       H01     AOSYM     SMH    MOLCAS    ERIS     OPER     GRID   

              2       5        3.39       700     1000      520     1800     2100   
                                         GEOM     BASIS   MCVARS    GRID      RKS  

 PROGRAMS   *        TOTAL        KS       INT
 CPU TIMES  *        51.56     46.57      4.86
 REAL TIME  *        57.33 SEC
 DISK USED  *       577.52 MB      
 **********************************************************************************************************************************


 PROGRAM * Intrinsic Basis Bonding Analysis (IBBA)          Author: G. Knizia

 Molecular orbitals read from record     2100.2  Type=RKS/CANONICAL (state 1.1)
 Fock matrix read from record            2100.2  Type=RKS/TOTAL (state 1.1)
 Orbital energies read from record       2100.2  Type=RKS/CANONICAL (state 1.1)
 Density matrix read from record         2100.2  Type=RKS/CHARGE (state 1.1)

 Number of core orbitals:           5 (   5 )
 Number of closed-shell orbitals:  16 (  16 )

 Basis set MINAO-AUTO-PP generated.      Number of basis functions:   37 

 Polarized AO type:                A = (O Ot + (1-O)(1-Ot)) P12
 Orthogonalization method:         Symmetric (Loewdin)
 Localization functional:          L = sum[A,i] <i|n_A|i>^4 -> max

 Localization group 1:  21 orbitals, occupancy  2.000
 Iterative localization: IB/PM,    7 iter; Final gradient 0.39E-08

 Bond order analysis:       [THRPRINT= 0.020]

   CEN ATOM   CEN ATOM     WIBERG.BO      RENORM.BO
     1   C  -   3   C       0.995199       0.999665
     1   C  -   5   C       0.995070       0.999624
     1   C  -   4   C       0.995068       0.999622
     1   C  -   2   C       0.994825       0.999336

     2   C  -   1   C       0.994825       0.999336
     2   C  -  15   H       0.966518       0.979635
     2   C  -  16   H       0.966453       0.979477
     2   C  -  17   H       0.966453       0.979477

     3   C  -   1   C       0.995199       0.999665
     3   C  -  10   H       0.966357       0.979412
     3   C  -   9   H       0.966357       0.979412
     3   C  -   6   H       0.966323       0.979527

     4   C  -   1   C       0.995068       0.999622
     4   C  -   7   H       0.966298       0.979483
     4   C  -  11   H       0.966290       0.979323
     4   C  -  12   H       0.966219       0.979522

     5   C  -   1   C       0.995070       0.999624
     5   C  -   8   H       0.966298       0.979482
     5   C  -  14   H       0.966289       0.979322
     5   C  -  13   H       0.966219       0.979522

     6   H  -   3   C       0.966323       0.979527

     7   H  -   4   C       0.966298       0.979483

     8   H  -   5   C       0.966298       0.979482

     9   H  -   3   C       0.966357       0.979412

    10   H  -   3   C       0.966357       0.979412

    11   H  -   4   C       0.966290       0.979323

    12   H  -   4   C       0.966219       0.979522

    13   H  -   5   C       0.966219       0.979522

    14   H  -   5   C       0.966289       0.979322

    15   H  -   2   C       0.966518       0.979635

    16   H  -   2   C       0.966453       0.979477

    17   H  -   2   C       0.966453       0.979477


 Valency analysis:

   CEN ATOM   TOT.VALENCE
     1   C       3.989998
     2   C       3.953411
     3   C       3.953232
     4   C       3.953136
     5   C       3.953136
     6   H       0.988549
     7   H       0.988586
     8   H       0.988586
     9   H       0.988659
    10   H       0.988659
    11   H       0.988686
    12   H       0.988484
    13   H       0.988485
    14   H       0.988687
    15   H       0.988648
    16   H       0.988656
    17   H       0.988656

 Total charge composition:

   CEN ATOM         s          p       ELECTRONS ->P.CHARGE
     1   C       2.89854    3.00854      5.90708    0.09292
     2   C       2.99519    3.34751      6.34270   -0.34270
     3   C       2.99525    3.34857      6.34382   -0.34382
     4   C       2.99512    3.34836      6.34349   -0.34349
     5   C       2.99512    3.34836      6.34349   -0.34349
     6   H       0.89299                 0.89299    0.10701
     7   H       0.89316                 0.89316    0.10684
     8   H       0.89316                 0.89316    0.10684
     9   H       0.89351                 0.89351    0.10649
    10   H       0.89351                 0.89351    0.10649
    11   H       0.89363                 0.89363    0.10637
    12   H       0.89269                 0.89269    0.10731
    13   H       0.89269                 0.89269    0.10731
    14   H       0.89364                 0.89364    0.10636
    15   H       0.89345                 0.89345    0.10655
    16   H       0.89349                 0.89349    0.10651
    17   H       0.89349                 0.89349    0.10651

 Total charge composition, AO contributions:

   CEN ATOM SHL      SPHERICAL COMPONENTS
     1   C  1s       1.99351
     1   C  2s       0.90504
     1   C  2p       1.00299    1.00275    1.00280

     2   C  1s       1.99263
     2   C  2s       1.00256
     2   C  2p       1.05701    1.14551    1.14498

     3   C  1s       1.99263
     3   C  2s       1.00262
     3   C  2p       1.13611    1.06721    1.14525

     4   C  1s       1.99263
     4   C  2s       1.00249
     4   C  2p       1.13583    1.12645    1.08608

     5   C  1s       1.99263
     5   C  2s       1.00249
     5   C  2p       1.13583    1.12646    1.08607

     6   H  1s       0.89299

     7   H  1s       0.89316

     8   H  1s       0.89316

     9   H  1s       0.89351

    10   H  1s       0.89351

    11   H  1s       0.89363

    12   H  1s       0.89269

    13   H  1s       0.89269

    14   H  1s       0.89364

    15   H  1s       0.89345

    16   H  1s       0.89349

    17   H  1s       0.89349

 Summary of localized orbital composition:   [THRPRINT= 0.020]

   ORB  GRP  ORB.ENERGY      CENTERS/CHARGES
     1   1    -9.823446      C  1   2.000
     2   1    -9.794002      C  4   2.000
     3   1    -9.794002      C  5   2.000
     4   1    -9.793910      C  3   2.000
     5   1    -9.793838      C  2   2.000
     6   1    -0.499680      C  3   1.011   C  1   0.962   (other: 0.028)
     7   1    -0.499660      C  5   1.010   C  1   0.962   (other: 0.028)
     8   1    -0.499657      C  4   1.010   C  1   0.962   (other: 0.028)
     9   1    -0.499583      C  2   1.010   C  1   0.962   (other: 0.028)
    10   1    -0.439319      C  4   1.106   H 12   0.884
    11   1    -0.439317      C  5   1.106   H 13   0.884
    12   1    -0.438939      C  3   1.106   H  6   0.884
    13   1    -0.438921      C  2   1.106   H 15   0.885
    14   1    -0.438920      C  4   1.106   H  7   0.884
    15   1    -0.438920      C  5   1.106   H  8   0.884
    16   1    -0.438679      C  2   1.106   H 17   0.885
    17   1    -0.438677      C  2   1.106   H 16   0.885
    18   1    -0.438563      C  3   1.105   H  9   0.885
    19   1    -0.438562      C  3   1.105   H 10   0.885
    20   1    -0.438385      C  4   1.105   H 11   0.885
    21   1    -0.438385      C  5   1.105   H 14   0.885

 Localized orbitals saved to record      2100.2  (orbital set 2)


 **********************************************************************************************************************************
 DATASETS  * FILE   NREC   LENGTH (MB)   RECORD NAMES
              1      20      155.67       500      610      700      900      950      970     1000      129      960     1100   
                                          VAR    BASINP    GEOM    SYMINP    ZMAT    AOBASIS   BASIS     P2S    ABASIS      S 
                                         1400     1410     1200     1210     1080     1600     1650     1300     1700     1800   
                                           T        V       H0       H01     AOSYM     SMH    MOLCAS    ERIS     OPER     GRID   

              2       5        3.53       700     1000      520     1800     2100   
                                         GEOM     BASIS   MCVARS    GRID      RKS  

 PROGRAMS   *        TOTAL      IBBA        KS       INT
 CPU TIMES  *        51.60      0.04     46.57      4.86
 REAL TIME  *        57.47 SEC
 DISK USED  *       577.52 MB      
 **********************************************************************************************************************************
 Molecular orbitals read from record     2100.2  Type=RKS/LOCAL(IBO)  
 Occupation numbers read from record     2100.2  Type=RKS/LOCAL(IBO)  
 Orbital energies read from record       2100.2  Type=RKS/LOCAL(IBO)  
 Redundancy group numbers read from rec  2100.2  Type=RKS/LOCAL(IBO)  

 IBBA/SVP energy=      0.000000000000

        KS-SCF  
   -191.65150258
 **********************************************************************************************************************************
 Molpro calculation terminated
