
 Primary working directories    : /tmp/sb13343
 Secondary working directories  : /tmp/sb13343
 Wavefunction directory         : /panfs/panasas01/chem/sb13343/wfu/
 Main file repository           : /tmp/sb13343/

 SHA1      : b4a5b34a9e711420743f49e6833241d17c61fb3c
 NAME      : 2099.9.b4a5b34
 ARCHNAME  : linux/x86_64_openmp
 FC        : /cm/shared/languages/GCC-6.1/bin/gfortran
 BLASLIB   : -lblas
 id        : simonbennie

 Nodes     nprocs
 node35-048    1

 Using customized tuning parameters: mindgm=1; mindgv=20; mindgc=4; mindgr=1; noblas=0; minvec=7
 default implementation of scratch files=df  

 memory,500,m
 geomtyp=xyz
 nosym
 noorient
 geometry={
 C         -1.53233        0.02247        0.00000
 C         -0.00192        0.01421        0.00000
 O          0.37239        1.40356        0.00000
 H          1.34248        1.44036        0.00000
 H         -1.92991       -0.99819        0.00000
 H         -1.90797        0.54382       -0.88653
 H         -1.90797        0.54382        0.88653
 C          0.54303       -0.66466       -1.26580
 C          0.54303       -0.66466        1.26580
 H          0.17836       -0.14752       -2.15943
 H          0.17836       -0.14752        2.15943
 H          0.23752       -1.71600       -1.32280
 H          0.23752       -1.71600        1.32280
 H          1.64084       -0.63767       -1.28032
 H          1.64084       -0.63767        1.28032
 }
 basis={ default,svp }
 {ks,M05-2X,direct;wf,42,1,0}
 {ibba,bonds=1}

 Variables initialized (895), CPU time= 0.01 sec
 Commands  initialized (725), CPU time= 0.01 sec, 591 directives.
 Default parameters read. Elapsed time= 0.23 sec

 Checking input...
 Passed
1


                                         ***  PROGRAM SYSTEM MOLPRO  ***
                                       Copyright, TTI GmbH Stuttgart, 2015
                                    Version 2099.9 linked May 26 2017 16:03:21


 **********************************************************************************************************************************
 LABEL *                                                                                 
  64 bit serial version                                                                  DATE: 09-Jun-17          TIME: 03:44:32  
 **********************************************************************************************************************************

 SHA1:             b4a5b34a9e711420743f49e6833241d17c61fb3c
 **********************************************************************************************************************************
 SETTING GEOMTYP        =    XYZ

 Variable memory set to  500000000 words,  buffer space 

 ZSYMEL=NOSYM

 SETTING BASIS          =    SVP


 Recomputing integrals since basis changed


 Using spherical harmonics

 Library entry C      S def2-SVP             selected for orbital group  1
 Library entry C      P def2-SVP             selected for orbital group  1
 Library entry C      D def2-SVP             selected for orbital group  1
 Library entry O      S def2-SVP             selected for orbital group  2
 Library entry O      P def2-SVP             selected for orbital group  2
 Library entry O      D def2-SVP             selected for orbital group  2
 Library entry H      S def2-SVP             selected for orbital group  3
 Library entry H      P def2-SVP             selected for orbital group  3


 PROGRAM * SEWARD (Integral evaluation for generally contracted gaussian basis sets)     Author: Roland Lindh, 1990

 Geometry written to block  1 of record 700


 Point group  C1  



 ATOMIC COORDINATES

 NR  ATOM    CHARGE       X              Y              Z

   1  C       6.00   -2.895684032    0.042462146    0.000000000
   2  C       6.00   -0.003628274    0.026853008    0.000000000
   3  O       8.00    0.703715112    2.652343999    0.000000000
   4  H       1.00    2.536919528    2.721885921    0.000000000
   5  H       1.00   -3.647001345   -1.886305720    0.000000000
   6  H       1.00   -3.605540754    1.027670861   -1.675298901
   7  H       1.00   -3.605540754    1.027670861    1.675298901
   8  C       6.00    1.026177977   -1.256025366   -2.392015328
   9  C       6.00    1.026177977   -1.256025366    2.392015328
  10  H       1.00    0.337051552   -0.278772398   -4.080731285
  11  H       1.00    0.337051552   -0.278772398    4.080731285
  12  H       1.00    0.448847749   -3.242770030   -2.499729718
  13  H       1.00    0.448847749   -3.242770030    2.499729718
  14  H       1.00    3.100738214   -1.205021658   -2.419454152
  15  H       1.00    3.100738214   -1.205021658    2.419454152

 Bond lengths in Bohr (Angstrom)

 1-2  2.892097881  1-5  2.069933136  1-6  2.069096224  1-7  2.069096224  2-3  2.719106031
     ( 1.530432290)     ( 1.095361444)     ( 1.094918569)     ( 1.094918569)     ( 1.438888946)

  2- 8  2.903104402   2- 9  2.903104402   3- 4  1.834522965   8-10  2.069222119   8-12  2.071730422
       ( 1.536256691)       ( 1.536256691)       ( 0.970787746)       ( 1.094985190)       ( 1.096312526)

  8-14  2.075368508   9-11  2.069222119   9-13  2.071730422   9-15  2.075368508
       ( 1.098237719)       ( 1.094985190)       ( 1.096312526)       ( 1.098237719)

 Bond angles

  1-2-3  104.76902697   1-2-8  110.92255387   1-2-9  110.92255387   2-1-5  110.97328220

  2- 1- 6  110.22090701   2- 1- 7  110.22090701   2- 3- 4  107.25071562   2- 8-10  110.21836376

  2- 8-12  111.57747468   2- 8-14  110.77023896   2- 9-11  110.21836376   2- 9-13  111.57747468

  2- 9-15  110.77023896   3- 2- 8  109.53648747   3- 2- 9  109.53648747   5- 1- 6  108.61190457

  5- 1- 7  108.61190457   6- 1- 7  108.12870271   8- 2- 9  110.96453384  10- 8-12  108.52192632

 10- 8-14  108.08997829  11- 9-13  108.52192632  11- 9-15  108.08997829  12- 8-14  107.54424578

 13- 9-15  107.54424578

 NUCLEAR CHARGE:                   42
 NUMBER OF PRIMITIVE AOS:         195
 NUMBER OF SYMMETRY AOS:          190
 NUMBER OF CONTRACTIONS:          120   ( 120A   )
 NUMBER OF CORE ORBITALS:           5   (   5A   )
 NUMBER OF VALENCE ORBITALS:       30   (  30A   )


 NUCLEAR REPULSION ENERGY  198.77359127


 Eigenvalues of metric

         1 0.176E-02 0.546E-02 0.548E-02 0.123E-01 0.248E-01 0.256E-01 0.256E-01 0.275E-01


 Contracted 2-electron integrals neglected if value below      1.0D-11
 AO integral compression algorithm  1   Integral accuracy      1.0D-11

     101.974 MB (compressed) written to integral file ( 44.9%)


 NUMBER OF SORTED TWO-ELECTRON INTEGRALS:   26357430.     BUFFER LENGTH:  32768
 NUMBER OF SEGMENTS:   2  SEGMENT LENGTH:   15997996      RECORD LENGTH: 524288

 Memory used in sort:      16.56 MW

 SORT1 READ    28411733. AND WROTE    24096425. INTEGRALS IN     70 RECORDS. CPU TIME:     0.39 SEC, REAL TIME:     1.17 SEC
 SORT2 READ    24096425. AND WROTE    26357430. INTEGRALS IN    389 RECORDS. CPU TIME:     0.60 SEC, REAL TIME:     0.82 SEC

 FILE SIZES:   FILE 1:   132.7 MBYTE,  FILE 4:   293.6 MBYTE,   TOTAL:    426.4 MBYTE

 OPERATOR DM      FOR CENTER  0  COORDINATES:    0.000000    0.000000    0.000000


 **********************************************************************************************************************************
 DATASETS  * FILE   NREC   LENGTH (MB)   RECORD NAMES
              1      19      120.44       500      610      700      900      950      970     1000      129      960     1100   
                                          VAR    BASINP    GEOM    SYMINP    ZMAT    AOBASIS   BASIS     P2S    ABASIS      S 
                                         1400     1410     1200     1210     1080     1600     1650     1300     1700   
                                           T        V       H0       H01     AOSYM     SMH    MOLCAS    ERIS     OPER   

 PROGRAMS   *        TOTAL       INT
 CPU TIMES  *         4.10      3.96
 REAL TIME  *        13.29 SEC
 DISK USED  *       426.89 MB      
 **********************************************************************************************************************************

 Density functional group M05-2X=XC-M05-2X
 Functional: XC-M05-2X(via MFM 1.6)                                            Gradient terms: 1
 Use grid at  1800.2


 Exact exchange will be calculated, factor:  0.5600

 Functional: XC-M05-2X                 Factor:  1.0000

 Generated new metagrid on record  1800.2 with target accuracy 1.0D-06 and 53396 points in CPU time    1.6
 Computed new grid on record 1800.1 in CPU time    1.8
   99539 words reserved for DFT integration

 PROGRAM * RKS-SCF (Restricted closed shell Kohn-Sham)     Authors: W. Meyer, H.-J. Werner, P.J. Knowles, 1993

 NUMBER OF ELECTRONS:      21+   21-    SPACE SYMMETRY=1    SPIN SYMMETRY: Singlet 
 CONVERGENCE THRESHOLDS:    1.00E-05 (Density)    1.00E-06 (Energy)
 MAX. NUMBER OF ITERATIONS:       60
 INTERPOLATION TYPE:            DIIS
 INTERPOLATION STEPS:              2 (START)      1 (STEP)
 LEVEL SHIFTS:                  0.00 (CLOSED)  0.00 (OPEN) 



 Use fine grid record 1800.2 for energy threshold  1.0D-06
 Orbital guess generated from atomic densities. Full valence occupancy:   21

 Molecular orbital dump at record        2100.2

 Initial occupancy:  21

 ITERATION    DDIFF          GRAD             ENERGY        2-EL.EN.            DIPOLE MOMENTS         DIIS   ORB.
    1      0.000D+00      0.000D+00      -233.32139582    594.672395    0.71790   -0.84439    0.00000    0    start
    2      0.000D+00      0.769D-02      -233.36345404    577.050136    0.13074   -0.21864    0.00000    1    diag
    3      0.122D-01      0.677D-02      -233.44718910    585.535593    0.37751   -0.53795    0.00000    2    diag
    4      0.593D-02      0.679D-03      -233.44773685    585.412854    0.37021   -0.47471    0.00000    3    diag
    5      0.719D-03      0.377D-03      -233.44798338    585.362557    0.37156   -0.50764    0.00000    4    diag
    6      0.343D-03      0.497D-04      -233.44798766    585.405784    0.37092   -0.50376    0.00000    5    diag
    7      0.607D-04      0.148D-04      -233.44798808    585.394695    0.37074   -0.50328    0.00000    6    diag
    8      0.147D-04      0.282D-05      -233.44798809    585.396816    0.37086   -0.50347    0.00000    7    diag
    9      0.439D-05      0.312D-06      -233.44798809    585.396805    0.37082   -0.50341    0.00000    0    orth

 Final occupancy:  21

 !RKS STATE 1.1 Energy               -233.447988094583
 Nuclear energy                       198.77359127
 One-electron energy                 -709.15462875
 Two-electron energy                  292.69840230
 SCF exchange energy                  -32.47752628     Factor= 0.5600
 Density functional                   -15.76535292     XC-M05-2X=-15.76535292
 Virial quotient                       -1.01157898
 !RKS STATE 1.1 Dipole moment           0.37082413    -0.50341158     0.00000000
 Dipole moment /Debye                   0.94247920    -1.27946079     0.00000000

 Orbital energies:

         1.1          2.1          3.1          4.1          5.1          6.1          7.1          8.1          9.1         10.1
    -19.656636   -10.630077   -10.567463   -10.567440   -10.561360    -1.112963    -0.881630    -0.781437    -0.780067    -0.646270

        11.1         12.1         13.1         14.1         15.1         16.1         17.1         18.1         19.1         20.1
     -0.563278    -0.525535    -0.523421    -0.481857    -0.466729    -0.444359    -0.432621    -0.420701    -0.414019    -0.380338

        21.1         22.1         23.1
     -0.337728     0.088440     0.142192

 HOMO     21.1    -0.337728 =      -9.1900eV
 LUMO     22.1     0.088440 =       2.4066eV
 LUMO-HOMO         0.426168 =      11.5966eV


 **********************************************************************************************************************************
 DATASETS  * FILE   NREC   LENGTH (MB)   RECORD NAMES
              1      20      122.15       500      610      700      900      950      970     1000      129      960     1100   
                                          VAR    BASINP    GEOM    SYMINP    ZMAT    AOBASIS   BASIS     P2S    ABASIS      S 
                                         1400     1410     1200     1210     1080     1600     1650     1300     1700     1800   
                                           T        V       H0       H01     AOSYM     SMH    MOLCAS    ERIS     OPER     GRID   

              2       5        3.30       700     1000      520     1800     2100   
                                         GEOM     BASIS   MCVARS    GRID      RKS  

 PROGRAMS   *        TOTAL        KS       INT
 CPU TIMES  *        35.84     31.74      3.96
 REAL TIME  *        54.56 SEC
 DISK USED  *       426.89 MB      
 **********************************************************************************************************************************


 PROGRAM * Intrinsic Basis Bonding Analysis (IBBA)          Author: G. Knizia

 Molecular orbitals read from record     2100.2  Type=RKS/CANONICAL (state 1.1)
 Fock matrix read from record            2100.2  Type=RKS/TOTAL (state 1.1)
 Orbital energies read from record       2100.2  Type=RKS/CANONICAL (state 1.1)
 Density matrix read from record         2100.2  Type=RKS/CHARGE (state 1.1)

 Number of core orbitals:           5 (   5 )
 Number of closed-shell orbitals:  16 (  16 )

 Basis set MINAO-AUTO-PP generated.      Number of basis functions:   35 

 Polarized AO type:                A = (O Ot + (1-O)(1-Ot)) P12
 Orthogonalization method:         Symmetric (Loewdin)
 Localization functional:          L = sum[A,i] <i|n_A|i>^4 -> max

 Localization group 1:  21 orbitals, occupancy  2.000
 Iterative localization: IB/PM,    7 iter; Final gradient 0.41E-08

 Bond order analysis:       [THRPRINT= 0.020]

   CEN ATOM   CEN ATOM     WIBERG.BO      RENORM.BO
     1   C  -   2   C       0.994241       0.992035
     1   C  -   5   H       0.965525       0.988055
     1   C  -   6   H       0.960693       0.983992
     1   C  -   7   H       0.960693       0.983992

     2   C  -   1   C       0.994241       0.992035
     2   C  -   9   C       0.993487       0.976001
     2   C  -   8   C       0.993487       0.976001
     2   C  -   3   O       0.940509       0.956283

     3   O  -   2   C       0.940509       0.956283
     3   O  -   4   H       0.874362       0.979663
     3   O  -   9   C       0.025159       0.012969
     3   O  -   8   C       0.025159       0.012969

     4   H  -   3   O       0.874362       0.979663

     5   H  -   1   C       0.965525       0.988055

     6   H  -   1   C       0.960693       0.983992

     7   H  -   1   C       0.960693       0.983992

     8   C  -   2   C       0.993487       0.976001
     8   C  -  14   H       0.965051       0.984354
     8   C  -  12   H       0.962004       0.984875
     8   C  -  10   H       0.961145       0.983861
     8   C  -   3   O       0.025159       0.012969

     9   C  -   2   C       0.993487       0.976001
     9   C  -  15   H       0.965051       0.984354
     9   C  -  13   H       0.962004       0.984875
     9   C  -  11   H       0.961145       0.983861
     9   C  -   3   O       0.025159       0.012969

    10   H  -   8   C       0.961145       0.983861

    11   H  -   9   C       0.961145       0.983861

    12   H  -   8   C       0.962004       0.984875

    13   H  -   9   C       0.962004       0.984875

    14   H  -   8   C       0.965051       0.984354

    15   H  -   9   C       0.965051       0.984354


 Valency analysis:

   CEN ATOM   TOT.VALENCE
     1   C       3.936152
     2   C       3.933381
     3   O       1.924270
     4   H       0.891231
     5   H       0.983623
     6   H       0.980527
     7   H       0.980527
     8   C       3.938806
     9   C       3.938806
    10   H       0.980524
    11   H       0.980524
    12   H       0.982320
    13   H       0.982320
    14   H       0.984869
    15   H       0.984869

 Total charge composition:

   CEN ATOM         s          p       ELECTRONS ->P.CHARGE
     1   C       3.01412    3.38440      6.39852   -0.39852
     2   C       2.91802    2.83519      5.75321    0.24679
     3   O       3.61552    4.93578      8.55130   -0.55130
     4   H       0.67020                 0.67020    0.32980
     5   H       0.87203                 0.87203    0.12797
     6   H       0.86045                 0.86045    0.13955
     7   H       0.86045                 0.86045    0.13955
     8   C       3.01946    3.39299      6.41245   -0.41245
     9   C       3.01946    3.39299      6.41245   -0.41245
    10   H       0.86044                 0.86044    0.13956
    11   H       0.86044                 0.86044    0.13956
    12   H       0.86703                 0.86703    0.13297
    13   H       0.86703                 0.86703    0.13297
    14   H       0.87699                 0.87699    0.12301
    15   H       0.87699                 0.87699    0.12301

 Total charge composition, AO contributions:

   CEN ATOM SHL      SPHERICAL COMPONENTS
     1   C  1s       1.99070
     1   C  2s       1.02342
     1   C  2p       1.04550    1.16281    1.17609

     2   C  1s       1.99238
     2   C  2s       0.92564
     2   C  2p       1.01841    0.79949    1.01730

     3   O  1s       1.99699
     3   O  2s       1.61853
     3   O  2p       1.47656    1.49817    1.96105

     4   H  1s       0.67020

     5   H  1s       0.87203

     6   H  1s       0.86045

     7   H  1s       0.86045

     8   C  1s       1.99080
     8   C  2s       1.02866
     8   C  2p       1.14529    1.14693    1.10077

     9   C  1s       1.99080
     9   C  2s       1.02866
     9   C  2p       1.14529    1.14693    1.10077

    10   H  1s       0.86044

    11   H  1s       0.86044

    12   H  1s       0.86703

    13   H  1s       0.86703

    14   H  1s       0.87699

    15   H  1s       0.87699

 Summary of localized orbital composition:   [THRPRINT= 0.020]

   ORB  GRP  ORB.ENERGY      CENTERS/CHARGES
     1   1   -19.500266      O  3   2.000
     2   1   -10.535416      C  2   2.000
     3   1   -10.449918      C  8   2.000
     4   1   -10.449918      C  9   2.000
     5   1   -10.442970      C  1   2.000
     6   1    -0.847826      O  3   1.331   H  4   0.661
     7   1    -0.811577      O  3   1.273   C  2   0.712
     8   1    -0.651394      C  8   1.007   C  2   0.979
     9   1    -0.651394      C  9   1.007   C  2   0.979
    10   1    -0.649895      C  2   0.990   C  1   0.988   (other: 0.022)
    11   1    -0.630305      O  3   1.983
    12   1    -0.579623      C  9   1.129   H 13   0.859
    13   1    -0.579623      C  8   1.129   H 12   0.859
    14   1    -0.578369      C  9   1.119   H 15   0.870
    15   1    -0.578369      C  8   1.119   H 14   0.870
    16   1    -0.574500      C  1   1.123   H  5   0.865
    17   1    -0.574067      C  8   1.138   H 10   0.853
    18   1    -0.574067      C  9   1.138   H 11   0.853
    19   1    -0.568531      C  1   1.137   H  7   0.853
    20   1    -0.568531      C  1   1.137   H  6   0.853
    21   1    -0.379375      O  3   1.961   (other: 0.039)

 Localized orbitals saved to record      2100.2  (orbital set 2)


 **********************************************************************************************************************************
 DATASETS  * FILE   NREC   LENGTH (MB)   RECORD NAMES
              1      20      122.15       500      610      700      900      950      970     1000      129      960     1100   
                                          VAR    BASINP    GEOM    SYMINP    ZMAT    AOBASIS   BASIS     P2S    ABASIS      S 
                                         1400     1410     1200     1210     1080     1600     1650     1300     1700     1800   
                                           T        V       H0       H01     AOSYM     SMH    MOLCAS    ERIS     OPER     GRID   

              2       5        3.42       700     1000      520     1800     2100   
                                         GEOM     BASIS   MCVARS    GRID      RKS  

 PROGRAMS   *        TOTAL      IBBA        KS       INT
 CPU TIMES  *        35.88      0.04     31.74      3.96
 REAL TIME  *        54.70 SEC
 DISK USED  *       426.89 MB      
 **********************************************************************************************************************************
 Molecular orbitals read from record     2100.2  Type=RKS/LOCAL(IBO)  
 Occupation numbers read from record     2100.2  Type=RKS/LOCAL(IBO)  
 Orbital energies read from record       2100.2  Type=RKS/LOCAL(IBO)  
 Redundancy group numbers read from rec  2100.2  Type=RKS/LOCAL(IBO)  

 IBBA/SVP energy=      0.000000000000

        KS-SCF  
   -233.44798809
 **********************************************************************************************************************************
 Molpro calculation terminated
