
 Primary working directories    : /local
 Secondary working directories  : /local
 Wavefunction directory         : /local/
 Main file repository           : /local/

 SHA1      : b4a5b34a9e711420743f49e6833241d17c61fb3c
 NAME      : 2099.9.b4a5b34
 ARCHNAME  : linux/x86_64_openmp
 FC        : /cm/shared/languages/GCC-6.1/bin/gfortran
 BLASLIB   : -lblas
 id        : simonbennie

 Nodes     nprocs
 node34-003    1

 Using customized tuning parameters: mindgm=1; mindgv=20; mindgc=4; mindgr=1; noblas=0; minvec=7
 default implementation of scratch files=df  

 memory,500,m
 geomtyp=xyz
 nosym
 noorient
 geometry={
 C         -1.53233        0.02247        0.00000
 C         -0.00192        0.01421        0.00000
 O          0.37239        1.40356        0.00000
 H          1.34248        1.44036        0.00000
 H         -1.92991       -0.99819        0.00000
 H         -1.90797        0.54382       -0.88653
 H         -1.90797        0.54382        0.88653
 C          0.54303       -0.66466       -1.26580
 C          0.54303       -0.66466        1.26580
 H          0.17836       -0.14752       -2.15943
 H          0.17836       -0.14752        2.15943
 H          0.23752       -1.71600       -1.32280
 H          0.23752       -1.71600        1.32280
 H          1.64084       -0.63767       -1.28032
 H          1.64084       -0.63767        1.28032
 }
 basis={ default,avtz }
 {ks,VWN,direct;wf,42,1,0}
 {ibba,bonds=1}

 Variables initialized (895), CPU time= 0.00 sec
 Commands  initialized (725), CPU time= 0.01 sec, 591 directives.
 Default parameters read. Elapsed time= 4.86 sec

 Checking input...
 Passed
1


                                         ***  PROGRAM SYSTEM MOLPRO  ***
                                       Copyright, TTI GmbH Stuttgart, 2015
                                    Version 2099.9 linked May 26 2017 16:03:21


 **********************************************************************************************************************************
 LABEL *                                                                                 
  64 bit serial version                                                                  DATE: 12-Jun-17          TIME: 14:19:12  
 **********************************************************************************************************************************

 SHA1:             b4a5b34a9e711420743f49e6833241d17c61fb3c
 **********************************************************************************************************************************
 SETTING GEOMTYP        =    XYZ

 Variable memory set to  500000000 words,  buffer space 

 ZSYMEL=NOSYM

 SETTING BASIS          =    AVTZ


 Recomputing integrals since basis changed


 Using spherical harmonics

 Library entry C      S aug-cc-pVTZ          selected for orbital group  1
 Library entry C      P aug-cc-pVTZ          selected for orbital group  1
 Library entry C      D aug-cc-pVTZ          selected for orbital group  1
 Library entry C      F aug-cc-pVTZ          selected for orbital group  1
 Library entry O      S aug-cc-pVTZ          selected for orbital group  2
 Library entry O      P aug-cc-pVTZ          selected for orbital group  2
 Library entry O      D aug-cc-pVTZ          selected for orbital group  2
 Library entry O      F aug-cc-pVTZ          selected for orbital group  2
 Library entry H      S aug-cc-pVTZ          selected for orbital group  3
 Library entry H      P aug-cc-pVTZ          selected for orbital group  3
 Library entry H      D aug-cc-pVTZ          selected for orbital group  3


 PROGRAM * SEWARD (Integral evaluation for generally contracted gaussian basis sets)     Author: Roland Lindh, 1990

 Geometry written to block  1 of record 700


 Point group  C1  



 ATOMIC COORDINATES

 NR  ATOM    CHARGE       X              Y              Z

   1  C       6.00   -2.895684032    0.042462146    0.000000000
   2  C       6.00   -0.003628274    0.026853008    0.000000000
   3  O       8.00    0.703715112    2.652343999    0.000000000
   4  H       1.00    2.536919528    2.721885921    0.000000000
   5  H       1.00   -3.647001345   -1.886305720    0.000000000
   6  H       1.00   -3.605540754    1.027670861   -1.675298901
   7  H       1.00   -3.605540754    1.027670861    1.675298901
   8  C       6.00    1.026177977   -1.256025366   -2.392015328
   9  C       6.00    1.026177977   -1.256025366    2.392015328
  10  H       1.00    0.337051552   -0.278772398   -4.080731285
  11  H       1.00    0.337051552   -0.278772398    4.080731285
  12  H       1.00    0.448847749   -3.242770030   -2.499729718
  13  H       1.00    0.448847749   -3.242770030    2.499729718
  14  H       1.00    3.100738214   -1.205021658   -2.419454152
  15  H       1.00    3.100738214   -1.205021658    2.419454152

 Bond lengths in Bohr (Angstrom)

 1-2  2.892097881  1-5  2.069933136  1-6  2.069096224  1-7  2.069096224  2-3  2.719106031
     ( 1.530432290)     ( 1.095361444)     ( 1.094918569)     ( 1.094918569)     ( 1.438888946)

  2- 8  2.903104402   2- 9  2.903104402   3- 4  1.834522965   8-10  2.069222119   8-12  2.071730422
       ( 1.536256691)       ( 1.536256691)       ( 0.970787746)       ( 1.094985190)       ( 1.096312526)

  8-14  2.075368508   9-11  2.069222119   9-13  2.071730422   9-15  2.075368508
       ( 1.098237719)       ( 1.094985190)       ( 1.096312526)       ( 1.098237719)

 Bond angles

  1-2-3  104.76902697   1-2-8  110.92255387   1-2-9  110.92255387   2-1-5  110.97328220

  2- 1- 6  110.22090701   2- 1- 7  110.22090701   2- 3- 4  107.25071562   2- 8-10  110.21836376

  2- 8-12  111.57747468   2- 8-14  110.77023896   2- 9-11  110.21836376   2- 9-13  111.57747468

  2- 9-15  110.77023896   3- 2- 8  109.53648747   3- 2- 9  109.53648747   5- 1- 6  108.61190457

  5- 1- 7  108.61190457   6- 1- 7  108.12870271   8- 2- 9  110.96453384  10- 8-12  108.52192632

 10- 8-14  108.08997829  11- 9-13  108.52192632  11- 9-15  108.08997829  12- 8-14  107.54424578

 13- 9-15  107.54424578

 NUCLEAR CHARGE:                   42
 NUMBER OF PRIMITIVE AOS:         605
 NUMBER OF SYMMETRY AOS:          540
 NUMBER OF CONTRACTIONS:          460   ( 460A   )
 NUMBER OF CORE ORBITALS:           5   (   5A   )
 NUMBER OF VALENCE ORBITALS:       30   (  30A   )


 NUCLEAR REPULSION ENERGY  198.77359127


 Eigenvalues of metric

         1 0.351E-05 0.596E-05 0.770E-05 0.977E-05 0.161E-04 0.173E-04 0.207E-04 0.297E-04


 Contracted 2-electron integrals neglected if value below      1.0D-12
 AO integral compression algorithm  1   Integral accuracy      1.0D-12

     24892.932 MB (compressed) written to integral file ( 51.7%)


 NUMBER OF SORTED TWO-ELECTRON INTEGRALS: 5621233465.     BUFFER LENGTH:  32768
 NUMBER OF SEGMENTS: 176  SEGMENT LENGTH:   31999951      RECORD LENGTH: 131072

 Memory used in sort:      32.16 MW

 SORT1 READ  6020115514. AND WROTE  5366777799. INTEGRALS IN  61513 RECORDS. CPU TIME:    79.34 SEC, REAL TIME:  5781.75 SEC
 SORT2 READ  5366777799. AND WROTE  5621233465. INTEGRALS IN  94959 RECORDS. CPU TIME:   142.71 SEC, REAL TIME: 13340.71 SEC

 FILE SIZES:   FILE 1: 24930.9 MBYTE,  FILE 4: 64501.1 MBYTE,   TOTAL:  89432.0 MBYTE

 OPERATOR DM      FOR CENTER  0  COORDINATES:    0.000000    0.000000    0.000000


 **********************************************************************************************************************************
 DATASETS  * FILE   NREC   LENGTH (MB)   RECORD NAMES
              1      19    23757.53       500      610      700      900      950      970     1000      129      960     1100   
                                          VAR    BASINP    GEOM    SYMINP    ZMAT    AOBASIS   BASIS     P2S    ABASIS      S 
                                         1400     1410     1200     1210     1080     1600     1650     1300     1700   
                                           T        V       H0       H01     AOSYM     SMH    MOLCAS    ERIS     OPER   

 PROGRAMS   *        TOTAL       INT
 CPU TIMES  *       430.33    430.19
 REAL TIME  *     19913.84 SEC
 DISK USED  *        89.43 GB      
 **********************************************************************************************************************************

 Density functional group VWN=VWN5
 Functional: VWN5(Automatically generated (new) VWN5)                          Gradient terms: 0
 Use grid at  1800.2

 Functional: VWN5                      Factor:  1.0000

 Generated new metagrid on record  1800.2 with target accuracy 1.0D-06 and 55396 points in CPU time    1.7
 Computed new grid on record 1800.1 in CPU time    1.9
  195064 words reserved for DFT integration

 PROGRAM * RKS-SCF (Restricted closed shell Kohn-Sham)     Authors: W. Meyer, H.-J. Werner, P.J. Knowles, 1993

 NUMBER OF ELECTRONS:      21+   21-    SPACE SYMMETRY=1    SPIN SYMMETRY: Singlet 
 CONVERGENCE THRESHOLDS:    1.00E-05 (Density)    1.00E-06 (Energy)
 MAX. NUMBER OF ITERATIONS:       60
 INTERPOLATION TYPE:            DIIS
 INTERPOLATION STEPS:              2 (START)      1 (STEP)
 LEVEL SHIFTS:                  0.00 (CLOSED)  0.00 (OPEN) 



 Use fine grid record 1800.2 for energy threshold  1.0D-06
 Orbital guess generated from atomic densities. Full valence occupancy:   35

 Molecular orbital dump at record        2100.2

 Initial occupancy:  21

 ITERATION    DDIFF          GRAD             ENERGY        2-EL.EN.            DIPOLE MOMENTS         DIIS   ORB.
    1      0.000D+00      0.000D+00      -197.37426917    493.203272    3.43937   11.16837   -0.00000    0    start
    2      0.000D+00      0.204D-01      -166.08906251    757.856859  -10.29081  -35.79595    0.00000    1    diag
    3      0.184D+01      0.730D-01      -194.42907375    691.595371   -1.06977   -9.77574   -0.00000    2    diag
    4      0.525D-01      0.347D-01      -198.33074381    638.359991   -8.30484  -12.38160    0.00000    3    diag
    5      0.236D-01      0.227D-01      -202.06722603    633.138554    1.46868   -3.18770   -0.00000    4    diag
    6      0.169D-01      0.123D-01      -203.17270358    589.435450   -2.19665   -2.05446    0.00000    5    diag
    7      0.130D-01      0.606D-02      -203.41327030    597.849006    0.27663   -0.91108   -0.00000    6    diag
    8      0.781D-02      0.301D-02      -203.49441445    589.300379    0.89661   -0.24979    0.00000    7    diag
    9      0.534D-02      0.120D-02      -203.50594935    588.590944   -0.01714   -0.31094   -0.00000    8    diag
   10      0.277D-02      0.340D-03      -203.50701535    589.321501    0.23092   -0.36430   -0.00000    9    orth
   11      0.119D-02      0.132D-03      -203.50713583    589.168806    0.22469   -0.36100   -0.00000    9    diag
   12      0.208D-03      0.383D-04      -203.50714708    589.046198    0.22051   -0.35017   -0.00000    9    diag
   13      0.132D-03      0.200D-04      -203.50714986    589.082086    0.21442   -0.34647    0.00000    9    diag
   14      0.326D-04      0.845D-05      -203.50715049    589.066096    0.21695   -0.34802   -0.00000    9    diag
   15      0.117D-04      0.183D-05      -203.50715052    589.071336    0.21593   -0.34878   -0.00000    9    diag
   16      0.646D-05      0.419D-06      -203.50715050    589.064337    0.21629   -0.34783   -0.00000    0    orth

 Final occupancy:  21

 !RKS STATE 1.1 Energy               -203.507150498940
 Nuclear energy                       198.77359127
 One-electron energy                 -694.25609677
 Two-electron energy                  294.53216867
 Density functional                    -2.55681367     VWN5=-2.55681367
 Virial quotient                       -0.97673817
 !RKS STATE 1.1 Dipole moment           0.21628804    -0.34783343    -0.00000000
 Dipole moment /Debye                   0.54971335    -0.88404649    -0.00000000

 Orbital energies:

         1.1          2.1          3.1          4.1          5.1          6.1          7.1          8.1          9.1         10.1
    -16.841506    -8.449975    -8.398756    -8.398739    -8.393454    -0.675322    -0.474617    -0.383006    -0.381210    -0.279441

        11.1         12.1         13.1         14.1         15.1         16.1         17.1         18.1         19.1         20.1
     -0.220332    -0.194053    -0.193618    -0.149728    -0.136957    -0.116409    -0.089527    -0.089442    -0.084835    -0.063991

        21.1         22.1         23.1
     -0.019715     0.013296     0.026364

 HOMO     21.1    -0.019715 =      -0.5365eV
 LUMO     22.1     0.013296 =       0.3618eV
 LUMO-HOMO         0.033011 =       0.8983eV


 **********************************************************************************************************************************
 DATASETS  * FILE   NREC   LENGTH (MB)   RECORD NAMES
              1      20    23759.30       500      610      700      900      950      970     1000      129      960     1100   
                                          VAR    BASINP    GEOM    SYMINP    ZMAT    AOBASIS   BASIS     P2S    ABASIS      S 
                                         1400     1410     1200     1210     1080     1600     1650     1300     1700     1800   
                                           T        V       H0       H01     AOSYM     SMH    MOLCAS    ERIS     OPER     GRID   

              2       5        7.31       700     1000      520     1800     2100   
                                         GEOM     BASIS   MCVARS    GRID      RKS  

 PROGRAMS   *        TOTAL        KS       INT
 CPU TIMES  *      1140.26    709.92    430.19
 REAL TIME  *     31396.76 SEC
 DISK USED  *        89.43 GB      
 **********************************************************************************************************************************


 PROGRAM * Intrinsic Basis Bonding Analysis (IBBA)          Author: G. Knizia

 Molecular orbitals read from record     2100.2  Type=RKS/CANONICAL (state 1.1)
 Fock matrix read from record            2100.2  Type=RKS/TOTAL (state 1.1)
 Orbital energies read from record       2100.2  Type=RKS/CANONICAL (state 1.1)
 Density matrix read from record         2100.2  Type=RKS/CHARGE (state 1.1)

 Number of core orbitals:           5 (   5 )
 Number of closed-shell orbitals:  16 (  16 )

 Basis set MINAO-AUTO-PP generated.      Number of basis functions:   35 

 Polarized AO type:                A = (O Ot + (1-O)(1-Ot)) P12
 Orthogonalization method:         Symmetric (Loewdin)
 Localization functional:          L = sum[A,i] <i|n_A|i>^4 -> max

 Localization group 1:  21 orbitals, occupancy  2.000
 Iterative localization: IB/PM,    7 iter; Final gradient 0.79E-08

 Bond order analysis:       [THRPRINT= 0.020]

   CEN ATOM   CEN ATOM     WIBERG.BO      RENORM.BO
     1   C  -   2   C       0.986254       0.998266
     1   C  -   5   H       0.955450       0.970688
     1   C  -   6   H       0.947439       0.953522
     1   C  -   7   H       0.947439       0.953522
     1   C  -   3   O       0.030736       0.016923
     1   C  -   4   H       0.024877       0.031944
     1   C  -  14   H       0.021305       0.022627
     1   C  -  15   H       0.021305       0.022627

     2   C  -   8   C       0.990862       0.975587
     2   C  -   9   C       0.990862       0.975587
     2   C  -   1   C       0.986254       0.998266
     2   C  -   3   O       0.963157       0.934789

     3   O  -   2   C       0.963157       0.934789
     3   O  -   4   H       0.899130       0.933024
     3   O  -   9   C       0.052652       0.028353
     3   O  -   8   C       0.052652       0.028353
     3   O  -  13   H       0.036078       0.025549
     3   O  -  12   H       0.036078       0.025549
     3   O  -   1   C       0.030736       0.016923
     3   O  -   5   H       0.021418       0.016444

     4   H  -   3   O       0.899130       0.933024
     4   H  -   1   C       0.024877       0.031944

     5   H  -   1   C       0.955450       0.970688
     5   H  -   3   O       0.021418       0.016444

     6   H  -   1   C       0.947439       0.953522
     6   H  -   9   C       0.024083       0.025061

     7   H  -   1   C       0.947439       0.953522
     7   H  -   8   C       0.024083       0.025061

     8   C  -   2   C       0.990862       0.975587
     8   C  -  14   H       0.947482       0.958124
     8   C  -  10   H       0.946634       0.950021
     8   C  -  12   H       0.945730       0.951851
     8   C  -   3   O       0.052652       0.028353
     8   C  -  11   H       0.024567       0.025585
     8   C  -   7   H       0.024083       0.025061

     9   C  -   2   C       0.990862       0.975587
     9   C  -  15   H       0.947482       0.958124
     9   C  -  11   H       0.946634       0.950021
     9   C  -  13   H       0.945730       0.951851
     9   C  -   3   O       0.052652       0.028353
     9   C  -  10   H       0.024567       0.025585
     9   C  -   6   H       0.024083       0.025061

    10   H  -   8   C       0.946634       0.950021
    10   H  -   9   C       0.024567       0.025585

    11   H  -   9   C       0.946634       0.950021
    11   H  -   8   C       0.024567       0.025585

    12   H  -   8   C       0.945730       0.951851
    12   H  -   3   O       0.036078       0.025549

    13   H  -   9   C       0.945730       0.951851
    13   H  -   3   O       0.036078       0.025549

    14   H  -   8   C       0.947482       0.958124
    14   H  -   1   C       0.021305       0.022627

    15   H  -   9   C       0.947482       0.958124
    15   H  -   1   C       0.021305       0.022627


 Valency analysis:

   CEN ATOM   TOT.VALENCE
     1   C       3.965967
     2   C       3.949004
     3   O       2.117689
     4   H       0.949017
     5   H       0.995143
     6   H       0.995112
     7   H       0.995112
     8   C       3.966527
     9   C       3.966527
    10   H       0.994899
    11   H       0.994899
    12   H       0.995447
    13   H       0.995447
    14   H       0.996324
    15   H       0.996324

 Total charge composition:

   CEN ATOM         s          p       ELECTRONS ->P.CHARGE
     1   C       2.95265    3.27053      6.22318   -0.22318
     2   C       2.87766    2.86773      5.74539    0.25461
     3   O       3.58309    4.78271      8.36580   -0.36580
     4   H       0.77421                 0.77421    0.22579
     5   H       0.93031                 0.93031    0.06969
     6   H       0.93008                 0.93008    0.06992
     7   H       0.93008                 0.93008    0.06992
     8   C       2.97363    3.27638      6.25001   -0.25001
     9   C       2.97363    3.27638      6.25001   -0.25001
    10   H       0.92858                 0.92858    0.07142
    11   H       0.92858                 0.92858    0.07142
    12   H       0.93252                 0.93252    0.06748
    13   H       0.93252                 0.93252    0.06748
    14   H       0.93937                 0.93937    0.06063
    15   H       0.93937                 0.93937    0.06063

 Total charge composition, AO contributions:

   CEN ATOM SHL      SPHERICAL COMPONENTS
     1   C  1s       1.99691
     1   C  2s       0.95574
     1   C  2p       1.02015    1.12050    1.12988

     2   C  1s       1.99765
     2   C  2s       0.88001
     2   C  2p       1.01455    0.83752    1.01565

     3   O  1s       1.99869
     3   O  2s       1.58440
     3   O  2p       1.39628    1.47639    1.91004

     4   H  1s       0.77421

     5   H  1s       0.93031

     6   H  1s       0.93008

     7   H  1s       0.93008

     8   C  1s       1.99695
     8   C  2s       0.97667
     8   C  2p       1.10214    1.10979    1.06446

     9   C  1s       1.99695
     9   C  2s       0.97667
     9   C  2p       1.10214    1.10979    1.06446

    10   H  1s       0.92858

    11   H  1s       0.92858

    12   H  1s       0.93252

    13   H  1s       0.93252

    14   H  1s       0.93937

    15   H  1s       0.93937

 Summary of localized orbital composition:   [THRPRINT= 0.020]

   ORB  GRP  ORB.ENERGY      CENTERS/CHARGES
     1   1   -16.738383      O  3   2.000
     2   1    -8.377999      C  2   2.000
     3   1    -8.313317      C  8   2.000
     4   1    -8.313317      C  9   2.000
     5   1    -8.307851      C  1   2.000
     6   1    -0.451469      O  3   1.238   C  2   0.736   (other: 0.026)
     7   1    -0.428764      O  3   1.241   H  4   0.742
     8   1    -0.300629      C  8   1.019   C  2   0.951   (other: 0.030)
     9   1    -0.300629      C  9   1.019   C  2   0.951   (other: 0.030)
    10   1    -0.299551      C  1   0.994   C  2   0.959   (other: 0.047)
    11   1    -0.232441      O  3   1.965   (other: 0.035)
    12   1    -0.216721      C  9   1.049   H 15   0.925   (other: 0.025)
    13   1    -0.216721      C  8   1.049   H 14   0.925   (other: 0.025)
    14   1    -0.216025      C  9   1.064   H 13   0.912   (other: 0.024)
    15   1    -0.216025      C  8   1.064   H 12   0.912   (other: 0.024)
    16   1    -0.212347      C  1   1.060   H  5   0.917   (other: 0.023)
    17   1    -0.210888      C  8   1.070   H 10   0.911
    18   1    -0.210888      C  9   1.070   H 11   0.911
    19   1    -0.208264      C  1   1.067   H  6   0.913   (other: 0.020)
    20   1    -0.208264      C  1   1.067   H  7   0.913   (other: 0.020)
    21   1    -0.054142      O  3   1.910   C  2   0.026   (other: 0.064)

 Localized orbitals saved to record      2100.2  (orbital set 2)


 **********************************************************************************************************************************
 DATASETS  * FILE   NREC   LENGTH (MB)   RECORD NAMES
              1      20    23759.30       500      610      700      900      950      970     1000      129      960     1100   
                                          VAR    BASINP    GEOM    SYMINP    ZMAT    AOBASIS   BASIS     P2S    ABASIS      S 
                                         1400     1410     1200     1210     1080     1600     1650     1300     1700     1800   
                                           T        V       H0       H01     AOSYM     SMH    MOLCAS    ERIS     OPER     GRID   

              2       5        9.01       700     1000      520     1800     2100   
                                         GEOM     BASIS   MCVARS    GRID      RKS  

 PROGRAMS   *        TOTAL      IBBA        KS       INT
 CPU TIMES  *      1140.52      0.26    709.92    430.19
 REAL TIME  *     31398.67 SEC
 DISK USED  *        89.43 GB      
 **********************************************************************************************************************************
 Molecular orbitals read from record     2100.2  Type=RKS/LOCAL(IBO)  
 Occupation numbers read from record     2100.2  Type=RKS/LOCAL(IBO)  
 Orbital energies read from record       2100.2  Type=RKS/LOCAL(IBO)  
 Redundancy group numbers read from rec  2100.2  Type=RKS/LOCAL(IBO)  

 IBBA/aug-cc-pVTZ energy=      0.000000000000

        KS-SCF  
   -203.50715050
 **********************************************************************************************************************************
 Molpro calculation terminated
