
 Primary working directories    : /local
 Secondary working directories  : /local
 Wavefunction directory         : /local/
 Main file repository           : /local/

 SHA1      : b4a5b34a9e711420743f49e6833241d17c61fb3c
 NAME      : 2099.9.b4a5b34
 ARCHNAME  : linux/x86_64_openmp
 FC        : /cm/shared/languages/GCC-6.1/bin/gfortran
 BLASLIB   : -lblas
 id        : simonbennie

 Nodes     nprocs
 node35-012    1

 Using customized tuning parameters: mindgm=1; mindgv=20; mindgc=4; mindgr=1; noblas=0; minvec=7
 default implementation of scratch files=df  

 memory,500,m
 geomtyp=xyz
 nosym
 noorient
 geometry={
 C         -1.53233        0.02247        0.00000
 C         -0.00192        0.01421        0.00000
 O          0.37239        1.40356        0.00000
 H          1.34248        1.44036        0.00000
 H         -1.92991       -0.99819        0.00000
 H         -1.90797        0.54382       -0.88653
 H         -1.90797        0.54382        0.88653
 C          0.54303       -0.66466       -1.26580
 C          0.54303       -0.66466        1.26580
 H          0.17836       -0.14752       -2.15943
 H          0.17836       -0.14752        2.15943
 H          0.23752       -1.71600       -1.32280
 H          0.23752       -1.71600        1.32280
 H          1.64084       -0.63767       -1.28032
 H          1.64084       -0.63767        1.28032
 }
 basis={ default,avdz }
 {uks,PBE,direct;wf,42,1,0}
 {ibba,bonds=1}

 Variables initialized (895), CPU time= 0.01 sec
 Commands  initialized (725), CPU time= 0.01 sec, 591 directives.
 Default parameters read. Elapsed time= 0.22 sec

 Checking input...
 Passed
1


                                         ***  PROGRAM SYSTEM MOLPRO  ***
                                       Copyright, TTI GmbH Stuttgart, 2015
                                    Version 2099.9 linked May 26 2017 16:03:21


 **********************************************************************************************************************************
 LABEL *                                                                                 
  64 bit serial version                                                                  DATE: 12-Jun-17          TIME: 16:28:59  
 **********************************************************************************************************************************

 SHA1:             b4a5b34a9e711420743f49e6833241d17c61fb3c
 **********************************************************************************************************************************
 SETTING GEOMTYP        =    XYZ

 Variable memory set to  500000000 words,  buffer space 

 ZSYMEL=NOSYM

 SETTING BASIS          =    AVDZ


 Recomputing integrals since basis changed


 Using spherical harmonics

 Library entry C      S aug-cc-pVDZ          selected for orbital group  1
 Library entry C      P aug-cc-pVDZ          selected for orbital group  1
 Library entry C      D aug-cc-pVDZ          selected for orbital group  1
 Library entry O      S aug-cc-pVDZ          selected for orbital group  2
 Library entry O      P aug-cc-pVDZ          selected for orbital group  2
 Library entry O      D aug-cc-pVDZ          selected for orbital group  2
 Library entry H      S aug-cc-pVDZ          selected for orbital group  3
 Library entry H      P aug-cc-pVDZ          selected for orbital group  3


 PROGRAM * SEWARD (Integral evaluation for generally contracted gaussian basis sets)     Author: Roland Lindh, 1990

 Geometry written to block  1 of record 700


 Point group  C1  



 ATOMIC COORDINATES

 NR  ATOM    CHARGE       X              Y              Z

   1  C       6.00   -2.895684032    0.042462146    0.000000000
   2  C       6.00   -0.003628274    0.026853008    0.000000000
   3  O       8.00    0.703715112    2.652343999    0.000000000
   4  H       1.00    2.536919528    2.721885921    0.000000000
   5  H       1.00   -3.647001345   -1.886305720    0.000000000
   6  H       1.00   -3.605540754    1.027670861   -1.675298901
   7  H       1.00   -3.605540754    1.027670861    1.675298901
   8  C       6.00    1.026177977   -1.256025366   -2.392015328
   9  C       6.00    1.026177977   -1.256025366    2.392015328
  10  H       1.00    0.337051552   -0.278772398   -4.080731285
  11  H       1.00    0.337051552   -0.278772398    4.080731285
  12  H       1.00    0.448847749   -3.242770030   -2.499729718
  13  H       1.00    0.448847749   -3.242770030    2.499729718
  14  H       1.00    3.100738214   -1.205021658   -2.419454152
  15  H       1.00    3.100738214   -1.205021658    2.419454152

 Bond lengths in Bohr (Angstrom)

 1-2  2.892097881  1-5  2.069933136  1-6  2.069096224  1-7  2.069096224  2-3  2.719106031
     ( 1.530432290)     ( 1.095361444)     ( 1.094918569)     ( 1.094918569)     ( 1.438888946)

  2- 8  2.903104402   2- 9  2.903104402   3- 4  1.834522965   8-10  2.069222119   8-12  2.071730422
       ( 1.536256691)       ( 1.536256691)       ( 0.970787746)       ( 1.094985190)       ( 1.096312526)

  8-14  2.075368508   9-11  2.069222119   9-13  2.071730422   9-15  2.075368508
       ( 1.098237719)       ( 1.094985190)       ( 1.096312526)       ( 1.098237719)

 Bond angles

  1-2-3  104.76902697   1-2-8  110.92255387   1-2-9  110.92255387   2-1-5  110.97328220

  2- 1- 6  110.22090701   2- 1- 7  110.22090701   2- 3- 4  107.25071562   2- 8-10  110.21836376

  2- 8-12  111.57747468   2- 8-14  110.77023896   2- 9-11  110.21836376   2- 9-13  111.57747468

  2- 9-15  110.77023896   3- 2- 8  109.53648747   3- 2- 9  109.53648747   5- 1- 6  108.61190457

  5- 1- 7  108.61190457   6- 1- 7  108.12870271   8- 2- 9  110.96453384  10- 8-12  108.52192632

 10- 8-14  108.08997829  11- 9-13  108.52192632  11- 9-15  108.08997829  12- 8-14  107.54424578

 13- 9-15  107.54424578

 NUCLEAR CHARGE:                   42
 NUMBER OF PRIMITIVE AOS:         295
 NUMBER OF SYMMETRY AOS:          285
 NUMBER OF CONTRACTIONS:          205   ( 205A   )
 NUMBER OF CORE ORBITALS:           5   (   5A   )
 NUMBER OF VALENCE ORBITALS:       30   (  30A   )


 NUCLEAR REPULSION ENERGY  198.77359127


 Eigenvalues of metric

         1 0.151E-04 0.552E-04 0.579E-04 0.110E-03 0.111E-03 0.217E-03 0.237E-03 0.259E-03


 Contracted 2-electron integrals neglected if value below      1.0D-12
 AO integral compression algorithm  1   Integral accuracy      1.0D-12

     1203.503 MB (compressed) written to integral file ( 61.3%)


 NUMBER OF SORTED TWO-ELECTRON INTEGRALS:  222932170.     BUFFER LENGTH:  32768
 NUMBER OF SEGMENTS:  14  SEGMENT LENGTH:   15999503      RECORD LENGTH: 524288

 Memory used in sort:      16.56 MW

 SORT1 READ   245224724. AND WROTE   218324786. INTEGRALS IN    630 RECORDS. CPU TIME:     3.49 SEC, REAL TIME:     7.63 SEC
 SORT2 READ   218324786. AND WROTE   222932170. INTEGRALS IN   4591 RECORDS. CPU TIME:     6.16 SEC, REAL TIME:    17.62 SEC

 FILE SIZES:   FILE 1:  1235.3 MBYTE,  FILE 4:  2642.4 MBYTE,   TOTAL:   3877.7 MBYTE

 OPERATOR DM      FOR CENTER  0  COORDINATES:    0.000000    0.000000    0.000000


 **********************************************************************************************************************************
 DATASETS  * FILE   NREC   LENGTH (MB)   RECORD NAMES
              1      19     1149.90       500      610      700      900      950      970     1000      129      960     1100   
                                          VAR    BASINP    GEOM    SYMINP    ZMAT    AOBASIS   BASIS     P2S    ABASIS      S 
                                         1400     1410     1200     1210     1080     1600     1650     1300     1700   
                                           T        V       H0       H01     AOSYM     SMH    MOLCAS    ERIS     OPER   

 PROGRAMS   *        TOTAL       INT
 CPU TIMES  *        22.77     22.63
 REAL TIME  *        53.34 SEC
 DISK USED  *         3.88 GB      
 **********************************************************************************************************************************

 Density functional group PBE=PBEX+PBEC
 Functional: PBEX(Automatically generated (new) PBEX)                          Gradient terms: 1
 Functional: PBEC(Automatically generated (new) PBEC)                          Gradient terms: 1
 Use grid at  1800.2

 Functional: PBEX                      Factor:  1.0000
 Functional: PBEC                      Factor:  1.0000

 Generated new metagrid on record  1800.2 with target accuracy 1.0D-06 and 53396 points in CPU time    1.7
 Computed new grid on record 1800.1 in CPU time    1.9
  167289 words reserved for DFT integration

 PROGRAM * UKS-SCF (Unrestricted Kohn-Sham)     Authors: W. Meyer, H.-J. Werner, P.J. Knowles, 1993

 NUMBER OF ELECTRONS:      21+   21-    SPACE SYMMETRY=1    SPIN SYMMETRY: Singlet 
 CONVERGENCE THRESHOLDS:    1.00E-05 (Density)    1.00E-06 (Energy)
 MAX. NUMBER OF ITERATIONS:       60
 INTERPOLATION TYPE:            DIIS
 INTERPOLATION STEPS:              2 (START)      1 (STEP)
 LEVEL SHIFTS:                 -0.20 (ALPHA)  -0.20 (BETA) 



 Use fine grid record 1800.2 for energy threshold  1.0D-06
 Orbital guess generated from atomic densities. Full valence occupancy:   35

 Molecular orbital dump at record        2200.2

 Initial alpha occupation  21
 Initial beta  occupation  21

 ITERATION    DDIFF          GRAD             ENERGY        2-EL.EN.            DIPOLE MOMENTS         DIIS
    1      0.000D+00      0.000D+00      -233.11541441    638.793319    0.68805   -0.73698    0.00000    0
    2      0.218D-01      0.352D-02      -233.33079070    614.603151    0.17332   -0.46696    0.00000    1
    3      0.838D-02      0.191D-02      -233.39157602    621.899170    0.34477   -0.57109    0.00000    2
    4      0.150D-02      0.253D-03      -233.39287252    621.515455    0.32358   -0.51050    0.00000    3
    5      0.104D-02      0.120D-03      -233.39331455    621.446612    0.32122   -0.52156    0.00000    4
    6      0.758D-03      0.324D-04      -233.39340137    621.420824    0.31977   -0.51519    0.00000    5
    7      0.200D-03      0.142D-04      -233.39340914    621.379413    0.31755   -0.51539    0.00000    6
    8      0.899D-04      0.707D-05      -233.39341098    621.389091    0.31730   -0.51636    0.00000    7
    9      0.251D-04      0.106D-05      -233.39341109    621.387005    0.31738   -0.51568    0.00000    7
   10      0.861D-05      0.380D-06      -233.39341110    621.388101    0.31723   -0.51593    0.00000    7
   11      0.253D-05      0.158D-06      -233.39341110    621.387344    0.31725   -0.51588    0.00000    7

 Final alpha occupancy:  21
 Final beta  occupancy:  21

 !UKS STATE 1.1 Energy               -233.393411100804
 Nuclear energy                       198.77359127
 One-electron energy                 -709.15652295
 Two-electron energy                  310.69367217
 Density functional                   -33.70415160     PBEX=-32.33303549 PBEC= -1.37111611
 Virial quotient                       -1.00637484
 !UKS STATE 1.1 Dipole moment           0.31725006    -0.51587754     0.00000000
 Dipole moment /Debye                   0.80631640    -1.31114404     0.00000000

 Orbital energies for positive spin:

         1.1          2.1          3.1          4.1          5.1          6.1          7.1          8.1          9.1         10.1
    -18.768232    -9.953015    -9.886389    -9.886365    -9.881587    -0.935343    -0.717603    -0.626442    -0.625861    -0.515357

        11.1         12.1         13.1         14.1         15.1         16.1         17.1         18.1         19.1         20.1
     -0.440640    -0.404778    -0.401816    -0.366391    -0.352744    -0.336855    -0.322801    -0.312434    -0.305588    -0.279499

        21.1         22.1         23.1
     -0.226044    -0.027324     0.000428

 Orbital energies for negative spin:

         1.1          2.1          3.1          4.1          5.1          6.1          7.1          8.1          9.1         10.1
    -18.768232    -9.953015    -9.886389    -9.886365    -9.881587    -0.935343    -0.717603    -0.626442    -0.625861    -0.515357

        11.1         12.1         13.1         14.1         15.1         16.1         17.1         18.1         19.1         20.1
     -0.440640    -0.404778    -0.401816    -0.366391    -0.352744    -0.336855    -0.322801    -0.312434    -0.305588    -0.279499

        21.1         22.1         23.1
     -0.226044    -0.027324     0.000428

 HOMO     21.1    -0.226044 =      -6.1510eV
 LUMO     22.1    -0.027324 =      -0.7435eV
 LUMO-HOMO         0.198720 =       5.4075eV

 EXPECTATION VALUE OF S**2:            -0.00000000

 Natural orbitals saved to record    2200.2 (Orbital set 3)

 Orbital spaces for UNO-CAS (Min. occupation: 0.020  Max. occupation: 1.980):

 Closed:       21
 Active:        0


 **********************************************************************************************************************************
 DATASETS  * FILE   NREC   LENGTH (MB)   RECORD NAMES
              1      20     1151.61       500      610      700      900      950      970     1000      129      960     1100   
                                          VAR    BASINP    GEOM    SYMINP    ZMAT    AOBASIS   BASIS     P2S    ABASIS      S 
                                         1400     1410     1200     1210     1080     1600     1650     1300     1700     1800   
                                           T        V       H0       H01     AOSYM     SMH    MOLCAS    ERIS     OPER     GRID   

              2       5        4.72       700     1000      520     1800     2200   
                                         GEOM     BASIS   MCVARS    GRID      UKS  

 PROGRAMS   *        TOTAL       UKS       INT
 CPU TIMES  *       107.54     84.76     22.63
 REAL TIME  *       140.36 SEC
 DISK USED  *         3.88 GB      
 **********************************************************************************************************************************


 PROGRAM * Intrinsic Basis Bonding Analysis (IBBA)          Author: G. Knizia

 Molecular orbitals read from record     2200.2  Type=UKS/ALPHA (state 1.1)
 Fock matrix read from record            2200.2  Type=UKS/TOTAL (state 1.1)
 Orbital energies read from record       2200.2  Type=UKS/ALPHA (state 1.1)
 Density matrix read from record         2200.2  Type=UKS/CHARGE (state 1.1)

 Number of core orbitals:           5 (   5 )
 Number of closed-shell orbitals:  16 (  16 )

 Basis set MINAO-AUTO-PP generated.      Number of basis functions:   35 

 Polarized AO type:                A = (O Ot + (1-O)(1-Ot)) P12
 Orthogonalization method:         Symmetric (Loewdin)
 Localization functional:          L = sum[A,i] <i|n_A|i>^4 -> max

 Localization group 1:  21 orbitals, occupancy  2.000
 Iterative localization: IB/PM,    7 iter; Final gradient 0.64E-08

 Bond order analysis:       [THRPRINT= 0.020]

   CEN ATOM   CEN ATOM     WIBERG.BO      RENORM.BO
     1   C  -   2   C       0.996609       0.993082
     1   C  -   5   H       0.959687       0.986090
     1   C  -   6   H       0.954868       0.979590
     1   C  -   7   H       0.954868       0.979590

     2   C  -   1   C       0.996609       0.993082
     2   C  -   9   C       0.995213       0.973788
     2   C  -   8   C       0.995213       0.973788
     2   C  -   3   O       0.937010       0.943591

     3   O  -   2   C       0.937010       0.943591
     3   O  -   4   H       0.859752       0.973113
     3   O  -   8   C       0.030657       0.015682
     3   O  -   9   C       0.030657       0.015682

     4   H  -   3   O       0.859752       0.973113

     5   H  -   1   C       0.959687       0.986090

     6   H  -   1   C       0.954868       0.979590

     7   H  -   1   C       0.954868       0.979590

     8   C  -   2   C       0.995213       0.973788
     8   C  -  14   H       0.959072       0.980494
     8   C  -  10   H       0.955477       0.979414
     8   C  -  12   H       0.954756       0.978708
     8   C  -   3   O       0.030657       0.015682

     9   C  -   2   C       0.995213       0.973788
     9   C  -  15   H       0.959072       0.980494
     9   C  -  11   H       0.955477       0.979414
     9   C  -  13   H       0.954756       0.978708
     9   C  -   3   O       0.030657       0.015682

    10   H  -   8   C       0.955477       0.979414

    11   H  -   9   C       0.955477       0.979414

    12   H  -   8   C       0.954756       0.978708

    13   H  -   9   C       0.954756       0.978708

    14   H  -   8   C       0.959072       0.980494

    15   H  -   9   C       0.959072       0.980494


 Valency analysis:

   CEN ATOM   TOT.VALENCE
     1   C       3.931866
     2   C       3.935031
     3   O       1.933470
     4   H       0.881732
     5   H       0.980069
     6   H       0.977588
     7   H       0.977588
     8   C       3.934569
     9   C       3.934569
    10   H       0.977664
    11   H       0.977664
    12   H       0.979500
    13   H       0.979500
    14   H       0.981758
    15   H       0.981758

 Total charge composition:

   CEN ATOM         s          p       ELECTRONS ->P.CHARGE
     1   C       3.04748    3.38529      6.43278   -0.43278
     2   C       2.94290    2.81074      5.75363    0.24637
     3   O       3.65528    4.90589      8.56116   -0.56116
     4   H       0.65610                 0.65610    0.34390
     5   H       0.85882                 0.85882    0.14118
     6   H       0.85029                 0.85029    0.14971
     7   H       0.85029                 0.85029    0.14971
     8   C       3.05451    3.39164      6.44615   -0.44615
     9   C       3.05451    3.39164      6.44615   -0.44615
    10   H       0.85055                 0.85055    0.14945
    11   H       0.85055                 0.85055    0.14945
    12   H       0.85682                 0.85682    0.14318
    13   H       0.85682                 0.85682    0.14318
    14   H       0.86494                 0.86494    0.13506
    15   H       0.86494                 0.86494    0.13506

 Total charge composition, AO contributions:

   CEN ATOM SHL      SPHERICAL COMPONENTS
     1   C  1s       1.99138
     1   C  2s       1.05611
     1   C  2p       1.03959    1.16661    1.17909

     2   C  1s       1.99299
     2   C  2s       0.94990
     2   C  2p       1.00738    0.79255    1.01081

     3   O  1s       1.99721
     3   O  2s       1.65807
     3   O  2p       1.47103    1.48392    1.95094

     4   H  1s       0.65610

     5   H  1s       0.85882

     6   H  1s       0.85029

     7   H  1s       0.85029

     8   C  1s       1.99148
     8   C  2s       1.06303
     8   C  2p       1.14842    1.14745    1.09577

     9   C  1s       1.99148
     9   C  2s       1.06303
     9   C  2p       1.14842    1.14745    1.09577

    10   H  1s       0.85055

    11   H  1s       0.85055

    12   H  1s       0.85682

    13   H  1s       0.85682

    14   H  1s       0.86494

    15   H  1s       0.86494

 Summary of localized orbital composition:   [THRPRINT= 0.020]

   ORB  GRP  ORB.ENERGY      CENTERS/CHARGES
     1   1   -18.613132      O  3   2.000
     2   1    -9.863467      C  2   2.000
     3   1    -9.774084      C  8   2.000
     4   1    -9.774084      C  9   2.000
     5   1    -9.768525      C  1   2.000
     6   1    -0.699770      O  3   1.347   H  4   0.643
     7   1    -0.658250      O  3   1.279   C  2   0.701
     8   1    -0.521600      C  8   1.007   C  2   0.977
     9   1    -0.521600      C  9   1.007   C  2   0.977
    10   1    -0.521479      C  1   0.991   C  2   0.984   (other: 0.025)
    11   1    -0.517698      O  3   1.980
    12   1    -0.455360      C  9   1.138   H 13   0.846
    13   1    -0.455360      C  8   1.138   H 12   0.846
    14   1    -0.453697      C  9   1.130   H 15   0.857
    15   1    -0.453697      C  8   1.130   H 14   0.857
    16   1    -0.451576      C  1   1.134   H  5   0.851
    17   1    -0.449391      C  8   1.147   H 10   0.842
    18   1    -0.449391      C  9   1.147   H 11   0.842
    19   1    -0.445268      C  1   1.146   H  7   0.842
    20   1    -0.445268      C  1   1.146   H  6   0.842
    21   1    -0.253218      O  3   1.951   (other: 0.049)

 Localized orbitals saved to record      2200.2  (orbital set 4)


 **********************************************************************************************************************************
 DATASETS  * FILE   NREC   LENGTH (MB)   RECORD NAMES
              1      20     1151.61       500      610      700      900      950      970     1000      129      960     1100   
                                          VAR    BASINP    GEOM    SYMINP    ZMAT    AOBASIS   BASIS     P2S    ABASIS      S 
                                         1400     1410     1200     1210     1080     1600     1650     1300     1700     1800   
                                           T        V       H0       H01     AOSYM     SMH    MOLCAS    ERIS     OPER     GRID   

              2       5        5.06       700     1000      520     1800     2200   
                                         GEOM     BASIS   MCVARS    GRID      UKS  

 PROGRAMS   *        TOTAL      IBBA       UKS       INT
 CPU TIMES  *       107.60      0.06     84.76     22.63
 REAL TIME  *       140.62 SEC
 DISK USED  *         3.88 GB      
 **********************************************************************************************************************************
 Molecular orbitals read from record     2200.2  Type=UKS/LOCAL(IBO)  
 Occupation numbers read from record     2200.2  Type=UKS/LOCAL(IBO)  
 Orbital energies read from record       2200.2  Type=UKS/LOCAL(IBO)  
 Redundancy group numbers read from rec  2200.2  Type=UKS/BETA (state 1.1)

 IBBA/aug-cc-pVDZ energy=      0.000000000000

        UKS-SCF 
   -233.39341110
 **********************************************************************************************************************************
 Molpro calculation terminated
