
 Primary working directories    : /tmp/sb13343
 Secondary working directories  : /tmp/sb13343
 Wavefunction directory         : /panfs/panasas01/chem/sb13343/wfu/
 Main file repository           : /tmp/sb13343/

 SHA1      : b4a5b34a9e711420743f49e6833241d17c61fb3c
 NAME      : 2099.9.b4a5b34
 ARCHNAME  : linux/x86_64_openmp
 FC        : /cm/shared/languages/GCC-6.1/bin/gfortran
 BLASLIB   : -lblas
 id        : simonbennie

 Nodes     nprocs
 node32-039    1

 Using customized tuning parameters: mindgm=1; mindgv=20; mindgc=4; mindgr=1; noblas=0; minvec=7
 default implementation of scratch files=df  

 memory,500,m
 geomtyp=xyz
 nosym
 noorient
 geometry={
 C          0.00000        0.00000        0.00000
 C          0.00000        0.00000        1.53307
 O          1.40344        0.00000        1.86307
 C          1.76314        0.00000        3.22887
 H         -1.02289        0.00000       -0.39176
 H          0.51995       -0.88625       -0.37815
 H          0.51995        0.88625       -0.37815
 H          2.85677        0.00000        3.25413
 H          1.40708       -0.89217        3.76475
 H          1.40708        0.89217        3.76475
 C         -0.69252       -1.26694        2.06222
 C         -0.69252        1.26694        2.06222
 H         -0.15366       -2.16088        1.72982
 H         -0.15366        2.16088        1.72982
 H         -1.72011       -1.32515        1.68649
 H         -1.72011        1.32515        1.68649
 H         -0.74365       -1.28188        3.15638
 H         -0.74365        1.28188        3.15638
 }
 basis={ default,svp }
 {ks,MM06,direct;wf,50,1,0}
 {ibba,bonds=1}

 Variables initialized (895), CPU time= 0.00 sec
 Commands  initialized (725), CPU time= 0.02 sec, 591 directives.
 Default parameters read. Elapsed time= 0.30 sec

 Checking input...
 Passed
1


                                         ***  PROGRAM SYSTEM MOLPRO  ***
                                       Copyright, TTI GmbH Stuttgart, 2015
                                    Version 2099.9 linked May 26 2017 16:03:21


 **********************************************************************************************************************************
 LABEL *                                                                                 
  64 bit serial version                                                                  DATE: 09-Jun-17          TIME: 01:56:46  
 **********************************************************************************************************************************

 SHA1:             b4a5b34a9e711420743f49e6833241d17c61fb3c
 **********************************************************************************************************************************
 SETTING GEOMTYP        =    XYZ

 Variable memory set to  500000000 words,  buffer space 

 ZSYMEL=NOSYM

 SETTING BASIS          =    SVP


 Recomputing integrals since basis changed


 Using spherical harmonics

 Library entry C      S def2-SVP             selected for orbital group  1
 Library entry C      P def2-SVP             selected for orbital group  1
 Library entry C      D def2-SVP             selected for orbital group  1
 Library entry O      S def2-SVP             selected for orbital group  2
 Library entry O      P def2-SVP             selected for orbital group  2
 Library entry O      D def2-SVP             selected for orbital group  2
 Library entry H      S def2-SVP             selected for orbital group  4
 Library entry H      P def2-SVP             selected for orbital group  4


 PROGRAM * SEWARD (Integral evaluation for generally contracted gaussian basis sets)     Author: Roland Lindh, 1990

 Geometry written to block  1 of record 700


 Point group  C1  



 ATOMIC COORDINATES

 NR  ATOM    CHARGE       X              Y              Z

   1  C       6.00    0.000000000    0.000000000    0.000000000
   2  C       6.00    0.000000000    0.000000000    2.897082430
   3  O       8.00    2.652117232    0.000000000    3.520692051
   4  C       6.00    3.331851719    0.000000000    6.101679992
   5  H       1.00   -1.932981956    0.000000000   -0.740319107
   6  H       1.00    0.982563098   -1.674769778   -0.714599934
   7  H       1.00    0.982563098    1.674769778   -0.714599934
   8  H       1.00    5.398512901    0.000000000    6.149414474
   9  H       1.00    2.658995835   -1.685956957    7.114346427
  10  H       1.00    2.658995835    1.685956957    7.114346427
  11  C       6.00   -1.308673136   -2.394169616    3.897031009
  12  C       6.00   -1.308673136    2.394169616    3.897031009
  13  H       1.00   -0.290375316   -4.083471388    3.268886045
  14  H       1.00   -0.290375316    4.083471388    3.268886045
  15  H       1.00   -3.250536804   -2.504170574    3.187004212
  16  H       1.00   -3.250536804    2.504170574    3.187004212
  17  H       1.00   -1.405294833   -2.422402125    5.964693745
  18  H       1.00   -1.405294833    2.422402125    5.964693745

 Bond lengths in Bohr (Angstrom)

 1-2  2.897082430  1-5  2.069901355  1-6  2.069042560  1-7  2.069042560  2-3  2.724447609
     ( 1.533070000)     ( 1.095344626)     ( 1.094890171)     ( 1.094890171)     ( 1.441715587)

  2-11  2.905954351   2-12  2.905954351   3- 4  2.668995640   4- 8  2.067212379   4- 9  2.078624355
       ( 1.537764818)       ( 1.537764818)       ( 1.412371669)       ( 1.093921681)       ( 1.099960639)

  4-10  2.078624355  11-13  2.070081404  11-15  2.070524757  11-17  2.070111596  12-14  2.070081404
       ( 1.099960639)       ( 1.095439904)       ( 1.095674516)       ( 1.095455880)       ( 1.095439904)

 12-16  2.070524757  12-18  2.070111596
       ( 1.095674516)       ( 1.095455880)

 Bond angles

  1- 2- 3  103.23196371   1- 2-11  110.12706952   1- 2-12  110.12706952   2- 1- 5  110.95650426

  2- 1- 6  110.20481748   2- 1- 7  110.20481748   2- 3- 4  117.98647004   2-11-13  110.26679927

  2-11-15  110.37287188   2-11-17  112.08316935   2-12-14  110.26679927   2-12-16  110.37287188

  2-12-18  112.08316935   3- 2-11  111.07703285   3- 2-12  111.07703285   3- 4- 8  106.07765410

  3- 4- 9  112.87219182   3- 4-10  112.87219182   5- 1- 6  108.65976572   5- 1- 7  108.65976572

  6- 1- 7  108.08288210   8- 4- 9  108.20190897   8- 4-10  108.20190897   9- 4-10  108.40564999

 11- 2-12  110.95103964  13-11-15  108.29648994  13-11-17  108.35544687  14-12-16  108.29648994

 14-12-18  108.35544687  15-11-17  107.33851825  16-12-18  107.33851825

 NUCLEAR CHARGE:                   50
 NUMBER OF PRIMITIVE AOS:         234
 NUMBER OF SYMMETRY AOS:          228
 NUMBER OF CONTRACTIONS:          144   ( 144A   )
 NUMBER OF CORE ORBITALS:           6   (   6A   )
 NUMBER OF VALENCE ORBITALS:       36   (  36A   )


 NUCLEAR REPULSION ENERGY  270.15500869


 Eigenvalues of metric

         1 0.176E-02 0.508E-02 0.513E-02 0.102E-01 0.124E-01 0.215E-01 0.221E-01 0.252E-01


 Contracted 2-electron integrals neglected if value below      1.0D-11
 AO integral compression algorithm  1   Integral accuracy      1.0D-11

     186.384 MB (compressed) written to integral file ( 41.3%)


 NUMBER OF SORTED TWO-ELECTRON INTEGRALS:   54502020.     BUFFER LENGTH:  32768
 NUMBER OF SEGMENTS:   4  SEGMENT LENGTH:   15999503      RECORD LENGTH: 524288

 Memory used in sort:      16.56 MW

 SORT1 READ    56333432. AND WROTE    45703433. INTEGRALS IN    132 RECORDS. CPU TIME:     0.77 SEC, REAL TIME:     1.48 SEC
 SORT2 READ    45703433. AND WROTE    54502020. INTEGRALS IN    711 RECORDS. CPU TIME:     1.06 SEC, REAL TIME:     1.39 SEC

 FILE SIZES:   FILE 1:   217.4 MBYTE,  FILE 4:   553.7 MBYTE,   TOTAL:    771.1 MBYTE

 OPERATOR DM      FOR CENTER  0  COORDINATES:    0.000000    0.000000    0.000000


 **********************************************************************************************************************************
 DATASETS  * FILE   NREC   LENGTH (MB)   RECORD NAMES
              1      19      194.45       500      610      700      900      950      970     1000      129      960     1100   
                                          VAR    BASINP    GEOM    SYMINP    ZMAT    AOBASIS   BASIS     P2S    ABASIS      S 
                                         1400     1410     1200     1210     1080     1600     1650     1300     1700   
                                           T        V       H0       H01     AOSYM     SMH    MOLCAS    ERIS     OPER   

 PROGRAMS   *        TOTAL       INT
 CPU TIMES  *         7.27      7.12
 REAL TIME  *         9.43 SEC
 DISK USED  *       771.70 MB      
 **********************************************************************************************************************************

 Density functional group MM06=M06X+M06C
 Functional: M06X(Automatically generated (new) M06X)                          Gradient terms: 2
 Functional: M06C(Automatically generated (new) M06C)                          Gradient terms: 2
 Use grid at  1800.2


 Exact exchange will be calculated, factor:  0.2700

 Functional: M06X                      Factor:  0.7300
 Functional: M06C                      Factor:  1.0000

 Generated new metagrid on record  1800.2 with target accuracy 1.0D-06 and 66012 points in CPU time    1.9
 Computed new grid on record 1800.1 in CPU time    2.2
  228438 words reserved for DFT integration

 PROGRAM * RKS-SCF (Restricted closed shell Kohn-Sham)     Authors: W. Meyer, H.-J. Werner, P.J. Knowles, 1993

 NUMBER OF ELECTRONS:      25+   25-    SPACE SYMMETRY=1    SPIN SYMMETRY: Singlet 
 CONVERGENCE THRESHOLDS:    1.00E-05 (Density)    1.00E-06 (Energy)
 MAX. NUMBER OF ITERATIONS:       60
 INTERPOLATION TYPE:            DIIS
 INTERPOLATION STEPS:              2 (START)      1 (STEP)
 LEVEL SHIFTS:                  0.00 (CLOSED)  0.00 (OPEN) 



 Use fine grid record 1800.2 for energy threshold  1.0D-06
 Orbital guess generated from atomic densities. Full valence occupancy:   25

 Molecular orbital dump at record        2100.2

 Initial occupancy:  25

 ITERATION    DDIFF          GRAD             ENERGY        2-EL.EN.            DIPOLE MOMENTS         DIIS   ORB.
    1      0.000D+00      0.000D+00      -265.04173762    785.592492   -0.52372    0.00000    0.50388    0    start
    2      0.000D+00      0.599D-02      -264.99393006    761.803371   -0.18866    0.00000    0.05355    1    diag
    3      0.141D-01      0.725D-02      -265.16411105    775.238215   -0.25048    0.00000    0.29116    2    diag
    4      0.806D-02      0.509D-03      -265.16462284    774.714249   -0.31186    0.00000    0.28992    3    diag
    5      0.604D-03      0.251D-03      -265.16478850    774.856483   -0.30178    0.00000    0.28886    4    diag
    6      0.241D-03      0.424D-04      -265.16479165    774.898942   -0.30163    0.00000    0.28991    5    diag
    7      0.593D-04      0.229D-04      -265.16479276    774.872777   -0.29975    0.00000    0.28890    6    diag
    8      0.237D-04      0.456D-05      -265.16479281    774.874490   -0.30072    0.00000    0.28944    7    diag
    9      0.482D-05      0.828D-06      -265.16479281    774.873714   -0.30042    0.00000    0.28913    0    orth

 Final occupancy:  25

 !RKS STATE 1.1 Energy               -265.164792807952
 Nuclear energy                       270.15500869
 One-electron energy                 -900.80091165
 Two-electron energy                  387.43685704
 SCF exchange energy                  -37.94496012     Factor= 0.2700
 Density functional                   -21.95574689     M06X=-27.28837137 M06C= -2.03523579
 Virial quotient                       -0.99516622
 !RKS STATE 1.1 Dipole moment          -0.30041813     0.00000000     0.28913248
 Dipole moment /Debye                  -0.76353672     0.00000000     0.73485332

 Orbital energies:

         1.1          2.1          3.1          4.1          5.1          6.1          7.1          8.1          9.1         10.1
    -18.787147    -9.956346    -9.945811    -9.902737    -9.902686    -9.897138    -0.961256    -0.736073    -0.635331    -0.629313

        11.1         12.1         13.1         14.1         15.1         16.1         17.1         18.1         19.1         20.1
     -0.605027    -0.490626    -0.434955    -0.414739    -0.412568    -0.381433    -0.363794    -0.347736    -0.330195    -0.321822

        21.1         22.1         23.1         24.1         25.1         26.1         27.1
     -0.312352    -0.293980    -0.293321    -0.246463    -0.202483     0.078802     0.114321

 HOMO     25.1    -0.202483 =      -5.5098eV
 LUMO     26.1     0.078802 =       2.1443eV
 LUMO-HOMO         0.281285 =       7.6542eV


 **********************************************************************************************************************************
 DATASETS  * FILE   NREC   LENGTH (MB)   RECORD NAMES
              1      20      196.57       500      610      700      900      950      970     1000      129      960     1100   
                                          VAR    BASINP    GEOM    SYMINP    ZMAT    AOBASIS   BASIS     P2S    ABASIS      S 
                                         1400     1410     1200     1210     1080     1600     1650     1300     1700     1800   
                                           T        V       H0       H01     AOSYM     SMH    MOLCAS    ERIS     OPER     GRID   

              2       5        3.48       700     1000      520     1800     2100   
                                         GEOM     BASIS   MCVARS    GRID      RKS  

 PROGRAMS   *        TOTAL        KS       INT
 CPU TIMES  *        75.69     68.42      7.12
 REAL TIME  *        78.90 SEC
 DISK USED  *       771.70 MB      
 **********************************************************************************************************************************


 PROGRAM * Intrinsic Basis Bonding Analysis (IBBA)          Author: G. Knizia

 Molecular orbitals read from record     2100.2  Type=RKS/CANONICAL (state 1.1)
 Fock matrix read from record            2100.2  Type=RKS/TOTAL (state 1.1)
 Orbital energies read from record       2100.2  Type=RKS/CANONICAL (state 1.1)
 Density matrix read from record         2100.2  Type=RKS/CHARGE (state 1.1)

 Number of core orbitals:           6 (   6 )
 Number of closed-shell orbitals:  19 (  19 )

 Basis set MINAO-AUTO-PP generated.      Number of basis functions:   42 

 Polarized AO type:                A = (O Ot + (1-O)(1-Ot)) P12
 Orthogonalization method:         Symmetric (Loewdin)
 Localization functional:          L = sum[A,i] <i|n_A|i>^4 -> max

 Localization group 1:  25 orbitals, occupancy  2.000
 Iterative localization: IB/PM,    7 iter; Final gradient 0.26E-08

 Bond order analysis:       [THRPRINT= 0.020]

   CEN ATOM   CEN ATOM     WIBERG.BO      RENORM.BO
     1   C  -   2   C       0.994215       0.995131
     1   C  -   5   H       0.966342       0.983958
     1   C  -   6   H       0.962102       0.979193
     1   C  -   7   H       0.962102       0.979193

     2   C  -   1   C       0.994215       0.995131
     2   C  -  12   C       0.989744       0.971815
     2   C  -  11   C       0.989744       0.971815
     2   C  -   3   O       0.930749       0.936243

     3   O  -   4   C       1.003150       1.018714
     3   O  -   2   C       0.930749       0.936243
     3   O  -   9   H       0.037039       0.021460
     3   O  -  10   H       0.037039       0.021460
     3   O  -  12   C       0.027315       0.014237
     3   O  -  11   C       0.027315       0.014237

     4   C  -   3   O       1.003150       1.018714
     4   C  -   8   H       0.959301       0.976132
     4   C  -   9   H       0.948970       0.929652
     4   C  -  10   H       0.948970       0.929652

     5   H  -   1   C       0.966342       0.983958

     6   H  -   1   C       0.962102       0.979193

     7   H  -   1   C       0.962102       0.979193

     8   H  -   4   C       0.959301       0.976132

     9   H  -   4   C       0.948970       0.929652
     9   H  -   3   O       0.037039       0.021460

    10   H  -   4   C       0.948970       0.929652
    10   H  -   3   O       0.037039       0.021460

    11   C  -   2   C       0.989744       0.971815
    11   C  -  17   H       0.963666       0.978963
    11   C  -  15   H       0.962658       0.985296
    11   C  -  13   H       0.962406       0.979248
    11   C  -   3   O       0.027315       0.014237

    12   C  -   2   C       0.989744       0.971815
    12   C  -  18   H       0.963666       0.978963
    12   C  -  16   H       0.962658       0.985296
    12   C  -  14   H       0.962406       0.979248
    12   C  -   3   O       0.027315       0.014237

    13   H  -  11   C       0.962406       0.979248

    14   H  -  12   C       0.962406       0.979248

    15   H  -  11   C       0.962658       0.985296

    16   H  -  12   C       0.962658       0.985296

    17   H  -  11   C       0.963666       0.978963

    18   H  -  12   C       0.963666       0.978963


 Valency analysis:

   CEN ATOM   TOT.VALENCE
     1   C       3.950265
     2   C       3.936344
     3   O       2.137724
     4   C       3.886317
     5   H       0.988376
     6   H       0.986221
     7   H       0.986221
     8   H       0.982998
     9   H       0.992185
    10   H       0.992185
    11   C       3.948980
    12   C       3.948980
    13   H       0.986505
    14   H       0.986505
    15   H       0.986374
    16   H       0.986374
    17   H       0.988173
    18   H       0.988173

 Total charge composition:

   CEN ATOM         s          p       ELECTRONS ->P.CHARGE
     1   C       2.99646    3.34901      6.34546   -0.34546
     2   C       2.90209    2.83729      5.73938    0.26062
     3   O       3.58438    4.78506      8.36944   -0.36944
     4   C       2.98278    3.16223      6.14501   -0.14501
     5   H       0.89219                 0.89219    0.10781
     6   H       0.88262                 0.88262    0.11738
     7   H       0.88262                 0.88262    0.11738
     8   H       0.86961                 0.86961    0.13039
     9   H       0.91160                 0.91160    0.08840
    10   H       0.91160                 0.91160    0.08840
    11   C       2.99594    3.37095      6.36690   -0.36690
    12   C       2.99594    3.37095      6.36690   -0.36690
    13   H       0.88383                 0.88383    0.11617
    14   H       0.88383                 0.88383    0.11617
    15   H       0.88327                 0.88327    0.11673
    16   H       0.88327                 0.88327    0.11673
    17   H       0.89125                 0.89125    0.10875
    18   H       0.89125                 0.89125    0.10875

 Total charge composition, AO contributions:

   CEN ATOM SHL      SPHERICAL COMPONENTS
     1   C  1s       1.99255
     1   C  2s       1.00390
     1   C  2p       1.14513    1.15709    1.04679

     2   C  1s       1.99404
     2   C  2s       0.90805
     2   C  2p       0.80448    1.01571    1.01710

     3   O  1s       1.99760
     3   O  2s       1.58678
     3   O  2p       1.43506    1.90189    1.44811

     4   C  1s       1.99311
     4   C  2s       0.98967
     4   C  2p       1.15030    1.15496    0.85696

     5   H  1s       0.89219

     6   H  1s       0.88262

     7   H  1s       0.88262

     8   H  1s       0.86961

     9   H  1s       0.91160

    10   H  1s       0.91160

    11   C  1s       1.99260
    11   C  2s       1.00335
    11   C  2p       1.13520    1.09555    1.14020

    12   C  1s       1.99260
    12   C  2s       1.00335
    12   C  2p       1.13520    1.09555    1.14020

    13   H  1s       0.88383

    14   H  1s       0.88383

    15   H  1s       0.88327

    16   H  1s       0.88327

    17   H  1s       0.89125

    18   H  1s       0.89125

 Summary of localized orbital composition:   [THRPRINT= 0.020]

   ORB  GRP  ORB.ENERGY      CENTERS/CHARGES
     1   1   -18.653566      O  3   2.000
     2   1    -9.870003      C  2   2.000
     3   1    -9.843532      C  4   2.000
     4   1    -9.795678      C 12   2.000
     5   1    -9.795678      C 11   2.000
     6   1    -9.789435      C  1   2.000
     7   1    -0.709437      O  3   1.238   C  4   0.754
     8   1    -0.682973      O  3   1.266   C  2   0.708   (other: 0.025)
     9   1    -0.521644      C 11   1.014   C  2   0.968
    10   1    -0.521644      C 12   1.014   C  2   0.968
    11   1    -0.518741      C  1   0.996   C  2   0.980   (other: 0.024)
    12   1    -0.478504      O  3   1.957   (other: 0.043)
    13   1    -0.460192      C  4   1.109   H 10   0.889
    14   1    -0.460192      C  4   1.109   H  9   0.889
    15   1    -0.457151      C  4   1.130   H  8   0.861
    16   1    -0.448241      C 11   1.109   H 15   0.874
    17   1    -0.448241      C 12   1.109   H 16   0.874
    18   1    -0.446509      C 12   1.106   H 18   0.882
    19   1    -0.446509      C 11   1.106   H 17   0.882
    20   1    -0.444033      C  1   1.102   H  5   0.884
    21   1    -0.442081      C 11   1.114   H 13   0.875
    22   1    -0.442081      C 12   1.114   H 14   0.875
    23   1    -0.436674      C  1   1.115   H  7   0.873
    24   1    -0.436674      C  1   1.115   H  6   0.873
    25   1    -0.255918      O  3   1.902   C  4   0.022   C  2   0.020   (other: 0.057)

 Localized orbitals saved to record      2100.2  (orbital set 2)


 **********************************************************************************************************************************
 DATASETS  * FILE   NREC   LENGTH (MB)   RECORD NAMES
              1      20      196.57       500      610      700      900      950      970     1000      129      960     1100   
                                          VAR    BASINP    GEOM    SYMINP    ZMAT    AOBASIS   BASIS     P2S    ABASIS      S 
                                         1400     1410     1200     1210     1080     1600     1650     1300     1700     1800   
                                           T        V       H0       H01     AOSYM     SMH    MOLCAS    ERIS     OPER     GRID   

              2       5        3.65       700     1000      520     1800     2100   
                                         GEOM     BASIS   MCVARS    GRID      RKS  

 PROGRAMS   *        TOTAL      IBBA        KS       INT
 CPU TIMES  *        75.75      0.06     68.42      7.12
 REAL TIME  *        79.08 SEC
 DISK USED  *       771.70 MB      
 **********************************************************************************************************************************
 Molecular orbitals read from record     2100.2  Type=RKS/LOCAL(IBO)  
 Occupation numbers read from record     2100.2  Type=RKS/LOCAL(IBO)  
 Orbital energies read from record       2100.2  Type=RKS/LOCAL(IBO)  
 Redundancy group numbers read from rec  2100.2  Type=RKS/LOCAL(IBO)  

 IBBA/SVP energy=      0.000000000000

        KS-SCF  
   -265.16479281
 **********************************************************************************************************************************
 Molpro calculation terminated
