
 Primary working directories    : /tmp/sb13343
 Secondary working directories  : /tmp/sb13343
 Wavefunction directory         : /panfs/panasas01/chem/sb13343/wfu/
 Main file repository           : /tmp/sb13343/

 SHA1      : b4a5b34a9e711420743f49e6833241d17c61fb3c
 NAME      : 2099.9.b4a5b34
 ARCHNAME  : linux/x86_64_openmp
 FC        : /cm/shared/languages/GCC-6.1/bin/gfortran
 BLASLIB   : -lblas
 id        : simonbennie

 Nodes     nprocs
 node32-036    1

 Using customized tuning parameters: mindgm=1; mindgv=20; mindgc=4; mindgr=1; noblas=0; minvec=7
 default implementation of scratch files=df  

 memory,500,m
 geomtyp=xyz
 nosym
 noorient
 geometry={
 C         -1.53233        0.02247        0.00000
 C         -0.00192        0.01421        0.00000
 O          0.37239        1.40356        0.00000
 H          1.34248        1.44036        0.00000
 H         -1.92991       -0.99819        0.00000
 H         -1.90797        0.54382       -0.88653
 H         -1.90797        0.54382        0.88653
 C          0.54303       -0.66466       -1.26580
 C          0.54303       -0.66466        1.26580
 H          0.17836       -0.14752       -2.15943
 H          0.17836       -0.14752        2.15943
 H          0.23752       -1.71600       -1.32280
 H          0.23752       -1.71600        1.32280
 H          1.64084       -0.63767       -1.28032
 H          1.64084       -0.63767        1.28032
 }
 basis={ default,sto-3g }
 {ks,MM05,direct;wf,42,1,0}
 {ibba,bonds=1}

 Variables initialized (895), CPU time= 0.00 sec
 Commands  initialized (725), CPU time= 0.01 sec, 591 directives.
 Default parameters read. Elapsed time= 0.07 sec

 Checking input...
 Passed
1


                                         ***  PROGRAM SYSTEM MOLPRO  ***
                                       Copyright, TTI GmbH Stuttgart, 2015
                                    Version 2099.9 linked May 26 2017 16:03:21


 **********************************************************************************************************************************
 LABEL *                                                                                 
  64 bit serial version                                                                  DATE: 09-Jun-17          TIME: 03:03:18  
 **********************************************************************************************************************************

 SHA1:             b4a5b34a9e711420743f49e6833241d17c61fb3c
 **********************************************************************************************************************************
 SETTING GEOMTYP        =    XYZ

 Variable memory set to  500000000 words,  buffer space 

 ZSYMEL=NOSYM

 SETTING BASIS          =    STO-3G


 Recomputing integrals since basis changed


 Using spherical harmonics

 Library entry C      S STO-3G               selected for orbital group  1
 Library entry C      P STO-3G               selected for orbital group  1
 Library entry O      S STO-3G               selected for orbital group  2
 Library entry O      P STO-3G               selected for orbital group  2
 Library entry H      S STO-3G               selected for orbital group  3


 PROGRAM * SEWARD (Integral evaluation for generally contracted gaussian basis sets)     Author: Roland Lindh, 1990

 Geometry written to block  1 of record 700


 Point group  C1  



 ATOMIC COORDINATES

 NR  ATOM    CHARGE       X              Y              Z

   1  C       6.00   -2.895684032    0.042462146    0.000000000
   2  C       6.00   -0.003628274    0.026853008    0.000000000
   3  O       8.00    0.703715112    2.652343999    0.000000000
   4  H       1.00    2.536919528    2.721885921    0.000000000
   5  H       1.00   -3.647001345   -1.886305720    0.000000000
   6  H       1.00   -3.605540754    1.027670861   -1.675298901
   7  H       1.00   -3.605540754    1.027670861    1.675298901
   8  C       6.00    1.026177977   -1.256025366   -2.392015328
   9  C       6.00    1.026177977   -1.256025366    2.392015328
  10  H       1.00    0.337051552   -0.278772398   -4.080731285
  11  H       1.00    0.337051552   -0.278772398    4.080731285
  12  H       1.00    0.448847749   -3.242770030   -2.499729718
  13  H       1.00    0.448847749   -3.242770030    2.499729718
  14  H       1.00    3.100738214   -1.205021658   -2.419454152
  15  H       1.00    3.100738214   -1.205021658    2.419454152

 Bond lengths in Bohr (Angstrom)

 1-2  2.892097881  1-5  2.069933136  1-6  2.069096224  1-7  2.069096224  2-3  2.719106031
     ( 1.530432290)     ( 1.095361444)     ( 1.094918569)     ( 1.094918569)     ( 1.438888946)

  2- 8  2.903104402   2- 9  2.903104402   3- 4  1.834522965   8-10  2.069222119   8-12  2.071730422
       ( 1.536256691)       ( 1.536256691)       ( 0.970787746)       ( 1.094985190)       ( 1.096312526)

  8-14  2.075368508   9-11  2.069222119   9-13  2.071730422   9-15  2.075368508
       ( 1.098237719)       ( 1.094985190)       ( 1.096312526)       ( 1.098237719)

 Bond angles

  1-2-3  104.76902697   1-2-8  110.92255387   1-2-9  110.92255387   2-1-5  110.97328220

  2- 1- 6  110.22090701   2- 1- 7  110.22090701   2- 3- 4  107.25071562   2- 8-10  110.21836376

  2- 8-12  111.57747468   2- 8-14  110.77023896   2- 9-11  110.21836376   2- 9-13  111.57747468

  2- 9-15  110.77023896   3- 2- 8  109.53648747   3- 2- 9  109.53648747   5- 1- 6  108.61190457

  5- 1- 7  108.61190457   6- 1- 7  108.12870271   8- 2- 9  110.96453384  10- 8-12  108.52192632

 10- 8-14  108.08997829  11- 9-13  108.52192632  11- 9-15  108.08997829  12- 8-14  107.54424578

 13- 9-15  107.54424578

 NUCLEAR CHARGE:                   42
 NUMBER OF PRIMITIVE AOS:         105
 NUMBER OF SYMMETRY AOS:          105
 NUMBER OF CONTRACTIONS:           35   (  35A   )
 NUMBER OF CORE ORBITALS:           5   (   5A   )
 NUMBER OF VALENCE ORBITALS:       30   (  30A   )


 NUCLEAR REPULSION ENERGY  198.77359127


 Eigenvalues of metric

         1 0.207E+00 0.227E+00 0.228E+00 0.304E+00 0.354E+00 0.360E+00 0.361E+00 0.363E+00


 Contracted 2-electron integrals neglected if value below      1.0D-11
 AO integral compression algorithm  1   Integral accuracy      1.0D-11

     1.573 MB (compressed) written to integral file ( 87.8%)


 NUMBER OF SORTED TWO-ELECTRON INTEGRALS:     198765.     BUFFER LENGTH:  32768
 NUMBER OF SEGMENTS:   1  SEGMENT LENGTH:     198765      RECORD LENGTH: 524288

 Memory used in sort:       0.76 MW

 SORT1 READ      224962. AND WROTE      188577. INTEGRALS IN      1 RECORDS. CPU TIME:     0.01 SEC, REAL TIME:     0.01 SEC
 SORT2 READ      188577. AND WROTE      198765. INTEGRALS IN      6 RECORDS. CPU TIME:     0.02 SEC, REAL TIME:     0.02 SEC

 FILE SIZES:   FILE 1:    31.8 MBYTE,  FILE 4:     4.2 MBYTE,   TOTAL:     36.0 MBYTE

 OPERATOR DM      FOR CENTER  0  COORDINATES:    0.000000    0.000000    0.000000


 **********************************************************************************************************************************
 DATASETS  * FILE   NREC   LENGTH (MB)   RECORD NAMES
              1      19       31.10       500      610      700      900      950      970     1000      129      960     1100   
                                          VAR    BASINP    GEOM    SYMINP    ZMAT    AOBASIS   BASIS     P2S    ABASIS      S 
                                         1400     1410     1200     1210     1080     1600     1650     1300     1700   
                                           T        V       H0       H01     AOSYM     SMH    MOLCAS    ERIS     OPER   

 PROGRAMS   *        TOTAL       INT
 CPU TIMES  *         0.57      0.43
 REAL TIME  *         0.89 SEC
 DISK USED  *        36.55 MB      
 **********************************************************************************************************************************

 Density functional group MM05=M05X+M05C
 Functional: M05X(Automatically generated (new) M05X)                          Gradient terms: 2
 Functional: M05C(Automatically generated (new) M05C)                          Gradient terms: 2
 Use grid at  1800.2


 Exact exchange will be calculated, factor:  0.2800

 Functional: M05X                      Factor:  0.7200
 Functional: M05C                      Factor:  1.0000

 Generated new metagrid on record  1800.2 with target accuracy 1.0D-06 and 53396 points in CPU time    1.6
 Computed new grid on record 1800.1 in CPU time    1.7
   59039 words reserved for DFT integration

 PROGRAM * RKS-SCF (Restricted closed shell Kohn-Sham)     Authors: W. Meyer, H.-J. Werner, P.J. Knowles, 1993

 NUMBER OF ELECTRONS:      21+   21-    SPACE SYMMETRY=1    SPIN SYMMETRY: Singlet 
 CONVERGENCE THRESHOLDS:    1.00E-05 (Density)    1.00E-06 (Energy)
 MAX. NUMBER OF ITERATIONS:       60
 INTERPOLATION TYPE:            DIIS
 INTERPOLATION STEPS:              2 (START)      1 (STEP)
 LEVEL SHIFTS:                  0.00 (CLOSED)  0.00 (OPEN) 



 Use fine grid record 1800.2 for energy threshold  1.0D-06
 Orbital guess generated from atomic densities. Full valence occupancy:   21

 Molecular orbital dump at record        2100.2

 Initial occupancy:  21

 ITERATION    DDIFF          GRAD             ENERGY        2-EL.EN.            DIPOLE MOMENTS         DIIS   ORB.
    1      0.000D+00      0.000D+00      -230.41595991    620.544290    0.76763   -1.12077    0.00000    0    start
    2      0.000D+00      0.270D-01      -230.56644462    595.758837   -0.04993    0.02948    0.00000    1    diag
    3      0.823D-01      0.194D-01      -230.71425913    605.544919    0.35797   -0.37996    0.00000    2    diag
    4      0.344D-01      0.635D-03      -230.71439612    605.675712    0.34472   -0.41667    0.00000    3    diag
    5      0.149D-02      0.277D-03      -230.71442364    605.687226    0.34418   -0.40834    0.00000    4    diag
    6      0.487D-03      0.199D-04      -230.71442382    605.691331    0.34567   -0.40913    0.00000    5    diag
    7      0.472D-04      0.441D-05      -230.71442382    605.691094    0.34542   -0.40898    0.00000    6    diag
    8      0.104D-04      0.165D-05      -230.71442382    605.691072    0.34542   -0.40901    0.00000    7    diag
    9      0.286D-05      0.106D-06      -230.71442382    605.691063    0.34543   -0.40901    0.00000    0    orth

 Final occupancy:  21

 !RKS STATE 1.1 Energy               -230.714423822826
 Nuclear energy                       198.77359127
 One-electron energy                 -707.35132360
 Two-electron energy                  302.84553127
 SCF exchange energy                  -32.71830562     Factor= 0.2800
 Density functional                   -24.98222276     M05X=-32.74100913 M05C= -1.40869619
 Virial quotient                       -1.01474344
 !RKS STATE 1.1 Dipole moment           0.34542642    -0.40900694     0.00000000
 Dipole moment /Debye                   0.87792889    -1.03952387     0.00000000

 Orbital energies:

         1.1          2.1          3.1          4.1          5.1          6.1          7.1          8.1          9.1         10.1
    -18.946474   -10.136419   -10.072342   -10.072277   -10.071877    -0.963149    -0.762393    -0.673632    -0.672202    -0.531995

        11.1         12.1         13.1         14.1         15.1         16.1         17.1         18.1         19.1         20.1
     -0.447979    -0.417433    -0.417313    -0.374058    -0.368983    -0.344379    -0.342852    -0.308775    -0.305416    -0.211372

        21.1         22.1         23.1
     -0.124096     0.314077     0.380429

 HOMO     21.1    -0.124096 =      -3.3768eV
 LUMO     22.1     0.314077 =       8.5465eV
 LUMO-HOMO         0.438173 =      11.9233eV


 **********************************************************************************************************************************
 DATASETS  * FILE   NREC   LENGTH (MB)   RECORD NAMES
              1      20       32.81       500      610      700      900      950      970     1000      129      960     1100   
                                          VAR    BASINP    GEOM    SYMINP    ZMAT    AOBASIS   BASIS     P2S    ABASIS      S 
                                         1400     1410     1200     1210     1080     1600     1650     1300     1700     1800   
                                           T        V       H0       H01     AOSYM     SMH    MOLCAS    ERIS     OPER     GRID   

              2       5        3.02       700     1000      520     1800     2100   
                                         GEOM     BASIS   MCVARS    GRID      RKS  

 PROGRAMS   *        TOTAL        KS       INT
 CPU TIMES  *         9.52      8.96      0.43
 REAL TIME  *        10.37 SEC
 DISK USED  *        36.55 MB      
 **********************************************************************************************************************************


 PROGRAM * Intrinsic Basis Bonding Analysis (IBBA)          Author: G. Knizia

 Molecular orbitals read from record     2100.2  Type=RKS/CANONICAL (state 1.1)
 Fock matrix read from record            2100.2  Type=RKS/TOTAL (state 1.1)
 Orbital energies read from record       2100.2  Type=RKS/CANONICAL (state 1.1)
 Density matrix read from record         2100.2  Type=RKS/CHARGE (state 1.1)

 Number of core orbitals:           5 (   5 )
 Number of closed-shell orbitals:  16 (  16 )

 Basis set MINAO-AUTO-PP generated.      Number of basis functions:   35 

 Polarized AO type:                A = (O Ot + (1-O)(1-Ot)) P12
 Orthogonalization method:         Symmetric (Loewdin)
 Localization functional:          L = sum[A,i] <i|n_A|i>^4 -> max

 Localization group 1:  21 orbitals, occupancy  2.000
 Iterative localization: IB/PM,    7 iter; Final gradient 0.26E-08

 Bond order analysis:       [THRPRINT= 0.020]

   CEN ATOM   CEN ATOM     WIBERG.BO      RENORM.BO
     1   C  -   2   C       0.990955       0.986327
     1   C  -   5   H       0.967285       0.990555
     1   C  -   6   H       0.963670       0.987606
     1   C  -   7   H       0.963670       0.987606

     2   C  -   3   O       0.999070       0.980983
     2   C  -   1   C       0.990955       0.986327
     2   C  -   8   C       0.986344       0.961405
     2   C  -   9   C       0.986344       0.961405

     3   O  -   2   C       0.999070       0.980983
     3   O  -   4   H       0.926309       0.982598
     3   O  -   9   C       0.027444       0.014230
     3   O  -   8   C       0.027444       0.014230

     4   H  -   3   O       0.926309       0.982598

     5   H  -   1   C       0.967285       0.990555

     6   H  -   1   C       0.963670       0.987606

     7   H  -   1   C       0.963670       0.987606

     8   C  -   2   C       0.986344       0.961405
     8   C  -  14   H       0.966381       0.986986
     8   C  -  12   H       0.964951       0.988637
     8   C  -  10   H       0.964333       0.987305
     8   C  -   3   O       0.027444       0.014230

     9   C  -   2   C       0.986344       0.961405
     9   C  -  15   H       0.966381       0.986986
     9   C  -  13   H       0.964951       0.988637
     9   C  -  11   H       0.964333       0.987305
     9   C  -   3   O       0.027444       0.014230

    10   H  -   8   C       0.964333       0.987305

    11   H  -   9   C       0.964333       0.987305

    12   H  -   8   C       0.964951       0.988637

    13   H  -   9   C       0.964951       0.988637

    14   H  -   8   C       0.966381       0.986986

    15   H  -   9   C       0.966381       0.986986


 Valency analysis:

   CEN ATOM   TOT.VALENCE
     1   C       3.933603
     2   C       3.971723
     3   O       2.027986
     4   H       0.942899
     5   H       0.982690
     6   H       0.981027
     7   H       0.981027
     8   C       3.935894
     9   C       3.935894
    10   H       0.981543
    11   H       0.981543
    12   H       0.982007
    13   H       0.982007
    14   H       0.983811
    15   H       0.983811

 Total charge composition:

   CEN ATOM         s          p       ELECTRONS ->P.CHARGE
     1   C       3.00219    3.39226      6.39445   -0.39445
     2   C       2.94831    2.92604      5.87435    0.12565
     3   O       3.67880    4.67387      8.35267   -0.35267
     4   H       0.76104                 0.76104    0.23896
     5   H       0.86843                 0.86843    0.13157
     6   H       0.86226                 0.86226    0.13774
     7   H       0.86226                 0.86226    0.13774
     8   C       3.00729    3.40221      6.40950   -0.40950
     9   C       3.00729    3.40221      6.40950   -0.40950
    10   H       0.86414                 0.86414    0.13586
    11   H       0.86414                 0.86414    0.13586
    12   H       0.86586                 0.86586    0.13414
    13   H       0.86586                 0.86586    0.13414
    14   H       0.87277                 0.87277    0.12723
    15   H       0.87277                 0.87277    0.12723

 Total charge composition, AO contributions:

   CEN ATOM SHL      SPHERICAL COMPONENTS
     1   C  1s       1.99143
     1   C  2s       1.01076
     1   C  2p       1.04912    1.16746    1.17568

     2   C  1s       1.99287
     2   C  2s       0.95543
     2   C  2p       1.03014    0.87012    1.02578

     3   O  1s       1.99725
     3   O  2s       1.68155
     3   O  2p       1.36164    1.35673    1.95550

     4   H  1s       0.76104

     5   H  1s       0.86843

     6   H  1s       0.86226

     7   H  1s       0.86226

     8   C  1s       1.99153
     8   C  2s       1.01576
     8   C  2p       1.15098    1.15084    1.10039

     9   C  1s       1.99153
     9   C  2s       1.01576
     9   C  2p       1.15098    1.15084    1.10039

    10   H  1s       0.86414

    11   H  1s       0.86414

    12   H  1s       0.86586

    13   H  1s       0.86586

    14   H  1s       0.87277

    15   H  1s       0.87277

 Summary of localized orbital composition:   [THRPRINT= 0.020]

   ORB  GRP  ORB.ENERGY      CENTERS/CHARGES
     1   1   -18.769485      O  3   2.000
     2   1   -10.042079      C  2   2.000
     3   1    -9.959046      C  9   2.000
     4   1    -9.959046      C  8   2.000
     5   1    -9.957724      C  1   2.000
     6   1    -0.676348      O  3   1.238   H  4   0.753
     7   1    -0.630444      O  3   1.168   C  2   0.816
     8   1    -0.538654      C  2   0.996   C  1   0.983   (other: 0.022)
     9   1    -0.537863      C  9   0.998   C  2   0.988
    10   1    -0.537863      C  8   0.998   C  2   0.988
    11   1    -0.503941      O  3   1.986
    12   1    -0.483049      C  8   1.125   H 14   0.867
    13   1    -0.483049      C  9   1.125   H 15   0.867
    14   1    -0.481569      C  8   1.131   H 12   0.859
    15   1    -0.481569      C  9   1.131   H 13   0.859
    16   1    -0.479358      C  1   1.128   H  5   0.862
    17   1    -0.477646      C  9   1.134   H 11   0.857
    18   1    -0.477646      C  8   1.134   H 10   0.857
    19   1    -0.472341      C  1   1.135   H  6   0.856
    20   1    -0.472341      C  1   1.135   H  7   0.856
    21   1    -0.144356      O  3   1.955   C  2   0.021   (other: 0.024)

 Localized orbitals saved to record      2100.2  (orbital set 2)


 **********************************************************************************************************************************
 DATASETS  * FILE   NREC   LENGTH (MB)   RECORD NAMES
              1      20       32.81       500      610      700      900      950      970     1000      129      960     1100   
                                          VAR    BASINP    GEOM    SYMINP    ZMAT    AOBASIS   BASIS     P2S    ABASIS      S 
                                         1400     1410     1200     1210     1080     1600     1650     1300     1700     1800   
                                           T        V       H0       H01     AOSYM     SMH    MOLCAS    ERIS     OPER     GRID   

              2       5        3.03       700     1000      520     1800     2100   
                                         GEOM     BASIS   MCVARS    GRID      RKS  

 PROGRAMS   *        TOTAL      IBBA        KS       INT
 CPU TIMES  *         9.56      0.03      8.96      0.43
 REAL TIME  *        10.52 SEC
 DISK USED  *        36.55 MB      
 **********************************************************************************************************************************
 Molecular orbitals read from record     2100.2  Type=RKS/LOCAL(IBO)  
 Occupation numbers read from record     2100.2  Type=RKS/LOCAL(IBO)  
 Orbital energies read from record       2100.2  Type=RKS/LOCAL(IBO)  
 Redundancy group numbers read from rec  2100.2  Type=RKS/LOCAL(IBO)  

 IBBA/STO-3G energy=      0.000000000000

        KS-SCF  
   -230.71442382
 **********************************************************************************************************************************
 Molpro calculation terminated
