
 Primary working directories    : /tmp/sb13343
 Secondary working directories  : /tmp/sb13343
 Wavefunction directory         : /panfs/panasas01/chem/sb13343/wfu/
 Main file repository           : /tmp/sb13343/

 SHA1      : b4a5b34a9e711420743f49e6833241d17c61fb3c
 NAME      : 2099.9.b4a5b34
 ARCHNAME  : linux/x86_64_openmp
 FC        : /cm/shared/languages/GCC-6.1/bin/gfortran
 BLASLIB   : -lblas
 id        : simonbennie

 Nodes     nprocs
 node33-003    1

 Using customized tuning parameters: mindgm=1; mindgv=20; mindgc=4; mindgr=1; noblas=0; minvec=7
 default implementation of scratch files=df  

 memory,500,m
 geomtyp=xyz
 nosym
 noorient
 geometry={
 H         -1.13405        1.76167        0.00000
 C         -1.32915        0.67205        0.00000
 C         -0.06360       -0.12883        0.00000
 C          0.67426       -0.31636        1.28970
 C          0.67426       -0.31636       -1.28970
 H         -1.94006        0.46750        0.88859
 H         -1.94006        0.46750       -0.88859
 H          1.28359        0.56876        1.55544
 H         -0.01165       -0.48291        2.13019
 H          1.36783       -1.16569        1.24157
 H          1.28359        0.56876       -1.55544
 H         -0.01165       -0.48291       -2.13019
 H          1.36783       -1.16569       -1.24157
 }
 basis={ default,svp }
 {ks,VWN80,direct;wf,33,1,1}
 {ibba,bonds=1}

 Variables initialized (895), CPU time= 0.00 sec
 Commands  initialized (725), CPU time= 0.01 sec, 591 directives.
 Default parameters read. Elapsed time= 0.19 sec

 Checking input...
 Passed
1


                                         ***  PROGRAM SYSTEM MOLPRO  ***
                                       Copyright, TTI GmbH Stuttgart, 2015
                                    Version 2099.9 linked May 26 2017 16:03:21


 **********************************************************************************************************************************
 LABEL *                                                                                 
  64 bit serial version                                                                  DATE: 08-Jun-17          TIME: 20:45:45  
 **********************************************************************************************************************************

 SHA1:             b4a5b34a9e711420743f49e6833241d17c61fb3c
 **********************************************************************************************************************************
 SETTING GEOMTYP        =    XYZ

 Variable memory set to  500000000 words,  buffer space 

 ZSYMEL=NOSYM

 SETTING BASIS          =    SVP


 Recomputing integrals since basis changed


 Using spherical harmonics

 Library entry H      S def2-SVP             selected for orbital group  1
 Library entry H      P def2-SVP             selected for orbital group  1
 Library entry C      S def2-SVP             selected for orbital group  2
 Library entry C      P def2-SVP             selected for orbital group  2
 Library entry C      D def2-SVP             selected for orbital group  2


 PROGRAM * SEWARD (Integral evaluation for generally contracted gaussian basis sets)     Author: Roland Lindh, 1990

 Geometry written to block  1 of record 700


 Point group  C1  



 ATOMIC COORDINATES

 NR  ATOM    CHARGE       X              Y              Z

   1  H       1.00   -2.143043912    3.329073822    0.000000000
   2  C       6.00   -2.511729478    1.269990442    0.000000000
   3  C       6.00   -0.120186582   -0.243453417    0.000000000
   4  C       6.00    1.274166737   -0.597833757    2.437179783
   5  C       6.00    1.274166737   -0.597833757   -2.437179783
   6  H       1.00   -3.666182065    0.883446963    1.679191737
   7  H       1.00   -3.666182065    0.883446963   -1.679191737
   8  H       1.00    2.425633556    1.074800631    2.939355603
   9  H       1.00   -0.022015309   -0.912567643    4.025475693
  10  H       1.00    2.584824085   -2.202834846    2.346227264
  11  H       1.00    2.425633556    1.074800631   -2.939355603
  12  H       1.00   -0.022015309   -0.912567643   -4.025475693
  13  H       1.00    2.584824085   -2.202834846   -2.346227264

 Bond lengths in Bohr (Angstrom)

 1-2  2.091830159  2-3  2.830192527  2-6  2.074092940  2-7  2.074092940  3-4  2.830132841
     ( 1.106948849)     ( 1.497673388)     ( 1.097562717)     ( 1.097562717)     ( 1.497641803)

  3- 5  2.830132841   4- 8  2.091832255   4- 9  2.074085151   4-10  2.074156104   5-11  2.091832255
       ( 1.497641803)       ( 1.106949959)       ( 1.097558596)       ( 1.097596142)       ( 1.106949959)

  5-12  2.074085151   5-13  2.074156104
       ( 1.097558596)       ( 1.097596142)

 Bond angles

  1-2-3  112.17549786   1-2-6  106.35284965   1-2-7  106.35284965   2-3-4  118.89987932

  2-3-5  118.89987932   3-2-6  111.75744418   3-2-7  111.75744418   3-4-8  112.19808176

  3- 4- 9  111.75014522   3- 4-10  111.74379558   3- 5-11  112.19808176   3- 5-12  111.75014522

  3- 5-13  111.74379558   4- 3- 5  118.89276928   6- 2- 7  108.11431090   8- 4- 9  106.34995457

  8- 4-10  106.34572146   9- 4-10  108.12296896  11- 5-12  106.34995457  11- 5-13  106.34572146

 12- 5-13  108.12296896

 NUCLEAR CHARGE:                   33
 NUMBER OF PRIMITIVE AOS:         163
 NUMBER OF SYMMETRY AOS:          159
 NUMBER OF CONTRACTIONS:          101   ( 101A   )
 NUMBER OF CORE ORBITALS:           4   (   4A   )
 NUMBER OF VALENCE ORBITALS:       25   (  25A   )


 NUCLEAR REPULSION ENERGY  124.92676597


 Eigenvalues of metric

         1 0.371E-02 0.424E-02 0.424E-02 0.242E-01 0.242E-01 0.268E-01 0.277E-01 0.371E-01


 Contracted 2-electron integrals neglected if value below      1.0D-11
 AO integral compression algorithm  1   Integral accuracy      1.0D-11

     53.477 MB (compressed) written to integral file ( 46.4%)


 NUMBER OF SORTED TWO-ELECTRON INTEGRALS:   13268976.     BUFFER LENGTH:  32768
 NUMBER OF SEGMENTS:   1  SEGMENT LENGTH:   13268976      RECORD LENGTH: 524288

 Memory used in sort:      13.83 MW

 SORT1 READ    14422061. AND WROTE    12225547. INTEGRALS IN     35 RECORDS. CPU TIME:     0.16 SEC, REAL TIME:     0.33 SEC
 SORT2 READ    12225547. AND WROTE    13268976. INTEGRALS IN    204 RECORDS. CPU TIME:     0.31 SEC, REAL TIME:     0.40 SEC

 FILE SIZES:   FILE 1:    84.0 MBYTE,  FILE 4:   146.8 MBYTE,   TOTAL:    230.9 MBYTE

 OPERATOR DM      FOR CENTER  0  COORDINATES:    0.000000    0.000000    0.000000


 **********************************************************************************************************************************
 DATASETS  * FILE   NREC   LENGTH (MB)   RECORD NAMES
              1      19       77.16       500      610      700      900      950      970     1000      129      960     1100   
                                          VAR    BASINP    GEOM    SYMINP    ZMAT    AOBASIS   BASIS     P2S    ABASIS      S 
                                         1400     1410     1200     1210     1080     1600     1650     1300     1700   
                                           T        V       H0       H01     AOSYM     SMH    MOLCAS    ERIS     OPER   

 PROGRAMS   *        TOTAL       INT
 CPU TIMES  *         2.12      1.98
 REAL TIME  *         2.98 SEC
 DISK USED  *       231.35 MB      
 **********************************************************************************************************************************

 Density functional group VWN80=VWN5
 Functional: VWN5(Automatically generated (new) VWN5)                          Gradient terms: 0
 Use grid at  1800.2

 Functional: VWN5                      Factor:  1.0000

 Generated new metagrid on record  1800.2 with target accuracy 1.0D-06 and 45406 points in CPU time    1.3
 Computed new grid on record 1800.1 in CPU time    1.4
   45874 words reserved for DFT integration

 PROGRAM * RKS-SCF (Restricted open shell Kohn-Sham)     Authors: W. Meyer, H.-J. Werner, P.J. Knowles, 1993

 NUMBER OF ELECTRONS:      17+   16-    SPACE SYMMETRY=1    SPIN SYMMETRY: Doublet 
 CONVERGENCE THRESHOLDS:    1.00E-05 (Density)    1.00E-06 (Energy)
 MAX. NUMBER OF ITERATIONS:       60
 INTERPOLATION TYPE:            DIIS
 INTERPOLATION STEPS:              2 (START)      1 (STEP)
 LEVEL SHIFTS:                 -0.60 (CLOSED) -0.30 (OPEN) 



 Use fine grid record 1800.2 for energy threshold  1.0D-06
 Orbital guess generated from atomic densities. Full valence occupancy:   17

 Molecular orbital dump at record        2100.2

 Initial alpha occupancy:  17
 Initial beta  occupancy:  16
 Wave function symmetry:    1

 ITERATION    DDIFF          GRAD             ENERGY        2-EL.EN.            DIPOLE MOMENTS         DIIS   ORB.
    1      0.000D+00      0.000D+00      -135.21527038    372.948329   -0.29755   -0.60243    0.00000    0    start
    2      0.000D+00      0.800D-02      -135.27414842    386.178199   -0.04052   -0.08216   -0.00000    1    diag,B
    3      0.224D-01      0.504D-02      -135.31033485    381.236553   -0.13601   -0.27531   -0.00000    2    diag,B
    4      0.517D-02      0.365D-03      -135.31080204    381.384593   -0.11072   -0.22410   -0.00000    3    diag,B
    5      0.263D-02      0.201D-03      -135.31103078    381.421686   -0.10530   -0.21311    0.00000    4    diag,B
    6      0.189D-02      0.809D-04      -135.31120839    381.441865   -0.09508   -0.19238    0.00000    5    diag,B
    7      0.223D-02      0.476D-04      -135.31132922    381.457005   -0.08541   -0.17277    0.00000    6    fixocc
    8      0.207D-02      0.285D-04      -135.31139138    381.466182   -0.07733   -0.15637   -0.00000    7    diag,B
    9      0.181D-02      0.135D-04      -135.31140406    381.470742   -0.07283   -0.14724   -0.00000    8    diag,B
   10      0.901D-03      0.541D-05      -135.31140526    381.472347   -0.07165   -0.14487    0.00000    9    orth
   11      0.291D-03      0.179D-05      -135.31140530    381.472211   -0.07147   -0.14449   -0.00000    9    diag,B
   12      0.422D-04      0.678D-06      -135.31140531    381.472087   -0.07143   -0.14442    0.00000    9    diag,B
   13      0.112D-04      0.210D-06      -135.31140531    381.472181   -0.07141   -0.14438   -0.00000    9    diag,B
   14      0.308D-05      0.894D-07      -135.31140531    381.472111   -0.07141   -0.14437    0.00000    0    orth

 Final alpha occupancy:  17
 Final beta  occupancy:  16

 !RKS STATE 1.1 Energy               -135.311405308592
 Nuclear energy                       124.92676597
 One-electron energy                 -449.00379331
 Two-electron energy                  190.73605554
 Density functional                    -1.97043351     VWN5=-1.97043351
 Virial quotient                       -0.92396124
 !RKS STATE 1.1 Dipole moment          -0.07141004    -0.14437287     0.00000000
 Dipole moment /Debye                  -0.18149432    -0.36693520     0.00000000

 Orbital energies:

         1.1          2.1          3.1          4.1          5.1          6.1          7.1          8.1          9.1         10.1
     -8.252983    -8.252980    -8.252767    -8.236593    -0.423259    -0.320287    -0.320275    -0.184555    -0.145943    -0.135801

        11.1         12.1         13.1         14.1         15.1         16.1         17.1         18.1         19.1
     -0.135800    -0.075999    -0.075958    -0.047781    -0.038725    -0.038720     0.124757     0.169825     0.223985

 HOMO     17.1     0.124757 =       3.3948eV
 LUMO     18.1     0.169825 =       4.6212eV
 LUMO-HOMO         0.045068 =       1.2264eV


 **********************************************************************************************************************************
 DATASETS  * FILE   NREC   LENGTH (MB)   RECORD NAMES
              1      20       78.61       500      610      700      900      950      970     1000      129      960     1100   
                                          VAR    BASINP    GEOM    SYMINP    ZMAT    AOBASIS   BASIS     P2S    ABASIS      S 
                                         1400     1410     1200     1210     1080     1600     1650     1300     1700     1800   
                                           T        V       H0       H01     AOSYM     SMH    MOLCAS    ERIS     OPER     GRID   

              2       5        3.26       700     1000      520     1800     2100   
                                         GEOM     BASIS   MCVARS    GRID      RKS  

 PROGRAMS   *        TOTAL        KS       INT
 CPU TIMES  *        13.89     11.76      1.98
 REAL TIME  *        15.60 SEC
 DISK USED  *       231.35 MB      
 **********************************************************************************************************************************


 PROGRAM * Intrinsic Basis Bonding Analysis (IBBA)          Author: G. Knizia

 Molecular orbitals read from record     2100.2  Type=RKS/CANONICAL (state 1.1)
 Fock matrix read from record            2100.2  Type=RKS/TOTAL (state 1.1)
 Orbital energies read from record       2100.2  Type=RKS/CANONICAL (state 1.1)
 Density matrix read from record         2100.2  Type=RKS/CHARGE (state 1.1)

 Number of core orbitals:           4 (   4 )
 Number of closed-shell orbitals:  12 (  12 )
 Number of active  orbitals:        1 (   1 )

 Basis set MINAO-AUTO-PP generated.      Number of basis functions:   29 

 Polarized AO type:                A = (O Ot + (1-O)(1-Ot)) P12
 Orthogonalization method:         Symmetric (Loewdin)
 Localization functional:          L = sum[A,i] <i|n_A|i>^4 -> max

 Localization group 1:  16 orbitals, occupancy  2.000
 Iterative localization: IB/PM,    9 iter; Final gradient 0.75E-09

 Bond order analysis:       [THRPRINT= 0.020]

   CEN ATOM   CEN ATOM     WIBERG.BO      RENORM.BO
     1   H  -   2   C       0.877460       0.995169
     1   H  -   3   C       0.059398       0.158430

     2   C  -   3   C       1.130000       1.306180
     2   C  -   7   H       0.940356       0.972316
     2   C  -   6   H       0.940356       0.972316
     2   C  -   1   H       0.877460       0.995169

     3   C  -   2   C       1.130000       1.306180
     3   C  -   5   C       1.129964       1.306116
     3   C  -   4   C       1.129964       1.306116
     3   C  -   1   H       0.059398       0.158430
     3   C  -  11   H       0.059346       0.158285
     3   C  -   8   H       0.059346       0.158285

     4   C  -   3   C       1.129964       1.306116
     4   C  -   9   H       0.940423       0.972300
     4   C  -  10   H       0.940267       0.972344
     4   C  -   8   H       0.877522       0.995158

     5   C  -   3   C       1.129964       1.306116
     5   C  -  12   H       0.940423       0.972300
     5   C  -  13   H       0.940267       0.972344
     5   C  -  11   H       0.877522       0.995158

     6   H  -   2   C       0.940356       0.972316

     7   H  -   2   C       0.940356       0.972316

     8   H  -   4   C       0.877522       0.995158
     8   H  -   3   C       0.059346       0.158285

     9   H  -   4   C       0.940423       0.972300

    10   H  -   4   C       0.940267       0.972344

    11   H  -   5   C       0.877522       0.995158
    11   H  -   3   C       0.059346       0.158285

    12   H  -   5   C       0.940423       0.972300

    13   H  -   5   C       0.940267       0.972344


 Valency analysis:

   CEN ATOM   TOT.VALENCE
     1   H       0.981162
     2   C       3.961644
     3   C       3.655691
     4   C       3.961633
     5   C       3.961633
     6   H       0.995879
     7   H       0.995879
     8   H       0.981170
     9   H       0.995888
    10   H       0.995868
    11   H       0.981170
    12   H       0.995888
    13   H       0.995868
 Localization group 2:   1 orbitals, occupancy  1.000
 Iterative localization: IB/PM,    1 iter; Final gradient 0.00E+00

 Bond order analysis:       [THRPRINT= 0.020]

   CEN ATOM   CEN ATOM     WIBERG.BO      RENORM.BO
     1   H  -   3   C       0.123653       0.500000
     1   H  -  11   H       0.021616       0.500000
     1   H  -   8   H       0.021616       0.500000


     3   C  -   1   H       0.123653       0.500000
     3   C  -  11   H       0.123617       0.500000
     3   C  -   8   H       0.123617       0.500000





     8   H  -   3   C       0.123617       0.500000
     8   H  -   1   H       0.021616       0.500000
     8   H  -  11   H       0.021610       0.500000



    11   H  -   3   C       0.123617       0.500000
    11   H  -   1   H       0.021616       0.500000
    11   H  -   8   H       0.021610       0.500000




 Valency analysis:

   CEN ATOM   TOT.VALENCE
     1   H       0.186331
     2   C       0.004243
     3   C       0.482093
     4   C       0.004231
     5   C       0.004231
     6   H       0.028616
     7   H       0.028616
     8   H       0.186283
     9   H       0.028508
    10   H       0.028752
    11   H       0.186283
    12   H       0.028508
    13   H       0.028752

 Total charge composition:

   CEN ATOM         s          p       ELECTRONS ->P.CHARGE
     1   H       0.96672                 0.96672    0.03328
     2   C       2.88786    3.27200      6.15985   -0.15985
     3   C       2.88222    3.03601      5.91824    0.08176
     4   C       2.88785    3.27204      6.15989   -0.15989
     5   C       2.88785    3.27204      6.15989   -0.15989
     6   H       0.95033                 0.95033    0.04967
     7   H       0.95033                 0.95033    0.04967
     8   H       0.96672                 0.96672    0.03328
     9   H       0.95034                 0.95034    0.04966
    10   H       0.95031                 0.95031    0.04969
    11   H       0.96672                 0.96672    0.03328
    12   H       0.95034                 0.95034    0.04966
    13   H       0.95031                 0.95031    0.04969

 Total charge composition, AO contributions:

   CEN ATOM SHL      SPHERICAL COMPONENTS
     1   H  1s       0.96672

     2   C  1s       1.99766
     2   C  2s       0.89020
     2   C  2p       1.08082    1.08576    1.10541

     3   C  1s       1.99821
     3   C  2s       0.88401
     3   C  2p       1.01166    1.01323    1.01112

     4   C  1s       1.99766
     4   C  2s       0.89019
     4   C  2p       1.09560    1.09314    1.08331

     5   C  1s       1.99766
     5   C  2s       0.89019
     5   C  2p       1.09560    1.09314    1.08331

     6   H  1s       0.95033

     7   H  1s       0.95033

     8   H  1s       0.96672

     9   H  1s       0.95034

    10   H  1s       0.95031

    11   H  1s       0.96672

    12   H  1s       0.95034

    13   H  1s       0.95031

 Active orbital charges:

   CEN ATOM         s          p       ELECTRONS ->SPIN.DEN
     1   H       0.10398                 0.10398    0.10398
     2   C       0.00176    0.00037      0.00213    0.00213
     3   C       0.00899    0.58563      0.59462    0.59462
     4   C       0.00176    0.00036      0.00212    0.00212
     5   C       0.00176    0.00036      0.00212    0.00212
     6   H       0.01452                 0.01452    0.01452
     7   H       0.01452                 0.01452    0.01452
     8   H       0.10395                 0.10395    0.10395
     9   H       0.01446                 0.01446    0.01446
    10   H       0.01459                 0.01459    0.01459
    11   H       0.10395                 0.10395    0.10395
    12   H       0.01446                 0.01446    0.01446
    13   H       0.01459                 0.01459    0.01459

 Active orbital charges, AO contributions:

   CEN ATOM SHL      SPHERICAL COMPONENTS
     1   H  1s       0.10398

     2   C  1s       0.00000
     2   C  2s       0.00176
     2   C  2p       0.00002    0.00035    0.00000

     3   C  1s       0.00000
     3   C  2s       0.00899
     3   C  2p       0.11461    0.47102    0.00000

     4   C  1s       0.00000
     4   C  2s       0.00176
     4   C  2p       0.00010    0.00025    0.00001

     5   C  1s       0.00000
     5   C  2s       0.00176
     5   C  2p       0.00010    0.00025    0.00001

     6   H  1s       0.01452

     7   H  1s       0.01452

     8   H  1s       0.10395

     9   H  1s       0.01446

    10   H  1s       0.01459

    11   H  1s       0.10395

    12   H  1s       0.01446

    13   H  1s       0.01459

 Summary of localized orbital composition:   [THRPRINT= 0.020]

   ORB  GRP  ORB.ENERGY      CENTERS/CHARGES
     1   1    -8.172064      C  2   2.000
     2   1    -8.172059      C  4   2.000
     3   1    -8.172059      C  5   2.000
     4   1    -8.165357      C  3   2.000
     5   1    -0.250325      C  4   1.023   C  3   0.953   (other: 0.024)
     6   1    -0.250325      C  5   1.023   C  3   0.953   (other: 0.024)
     7   1    -0.250308      C  2   1.023   C  3   0.953   (other: 0.024)
     8   1    -0.172504      C  2   1.038   H  1   0.849   C  3   0.103
     9   1    -0.172490      C  4   1.038   H  8   0.849   C  3   0.103
    10   1    -0.172490      C  5   1.038   H 11   0.849   C  3   0.103
    11   1    -0.164747      C  2   1.039   H  6   0.923   C  3   0.026
    12   1    -0.164747      C  2   1.039   H  7   0.923   C  3   0.026
    13   1    -0.164744      C  5   1.039   H 13   0.923   C  3   0.026
    14   1    -0.164744      C  4   1.039   H 10   0.923   C  3   0.026
    15   1    -0.164740      C  4   1.039   H  9   0.923   C  3   0.026
    16   1    -0.164740      C  5   1.039   H 12   0.923   C  3   0.026
    17   2     0.119039      C  3   0.595   H  1   0.104   H 11   0.104   H  8   0.104   (other: 0.094)

 Localized orbitals saved to record      2100.2  (orbital set 2)


 **********************************************************************************************************************************
 DATASETS  * FILE   NREC   LENGTH (MB)   RECORD NAMES
              1      20       78.61       500      610      700      900      950      970     1000      129      960     1100   
                                          VAR    BASINP    GEOM    SYMINP    ZMAT    AOBASIS   BASIS     P2S    ABASIS      S 
                                         1400     1410     1200     1210     1080     1600     1650     1300     1700     1800   
                                           T        V       H0       H01     AOSYM     SMH    MOLCAS    ERIS     OPER     GRID   

              2       5        3.34       700     1000      520     1800     2100   
                                         GEOM     BASIS   MCVARS    GRID      RKS  

 PROGRAMS   *        TOTAL      IBBA        KS       INT
 CPU TIMES  *        13.92      0.02     11.76      1.98
 REAL TIME  *        15.71 SEC
 DISK USED  *       231.35 MB      
 **********************************************************************************************************************************
 Molecular orbitals read from record     2100.2  Type=RKS/LOCAL(IBO)  
 Occupation numbers read from record     2100.2  Type=RKS/LOCAL(IBO)  
 Orbital energies read from record       2100.2  Type=RKS/LOCAL(IBO)  
 Redundancy group numbers read from rec  2100.2  Type=RKS/LOCAL(IBO)  

 IBBA/SVP energy=      0.000000000000

        KS-SCF  
   -135.31140531
 **********************************************************************************************************************************
 Molpro calculation terminated
