
 Primary working directories    : /local
 Secondary working directories  : /local
 Wavefunction directory         : /local/
 Main file repository           : /local/

 SHA1      : b4a5b34a9e711420743f49e6833241d17c61fb3c
 NAME      : 2099.9.b4a5b34
 ARCHNAME  : linux/x86_64_openmp
 FC        : /cm/shared/languages/GCC-6.1/bin/gfortran
 BLASLIB   : -lblas
 id        : simonbennie

 Nodes     nprocs
 node33-010    1

 Using customized tuning parameters: mindgm=1; mindgv=20; mindgc=4; mindgr=1; noblas=0; minvec=7
 default implementation of scratch files=df  

 memory,500,m
 geomtyp=xyz
 nosym
 noorient
 geometry={
 C         -1.53233        0.02247        0.00000
 C         -0.00192        0.01421        0.00000
 O          0.37239        1.40356        0.00000
 H          1.34248        1.44036        0.00000
 H         -1.92991       -0.99819        0.00000
 H         -1.90797        0.54382       -0.88653
 H         -1.90797        0.54382        0.88653
 C          0.54303       -0.66466       -1.26580
 C          0.54303       -0.66466        1.26580
 H          0.17836       -0.14752       -2.15943
 H          0.17836       -0.14752        2.15943
 H          0.23752       -1.71600       -1.32280
 H          0.23752       -1.71600        1.32280
 H          1.64084       -0.63767       -1.28032
 H          1.64084       -0.63767        1.28032
 }
 basis={ default,SV(P) }
 {uks,PBEREV,direct;wf,42,1,0}
 {ibba,bonds=1}

 Variables initialized (895), CPU time= 0.00 sec
 Commands  initialized (725), CPU time= 0.02 sec, 591 directives.
 Default parameters read. Elapsed time= 0.09 sec

 Checking input...
 Passed
1


                                         ***  PROGRAM SYSTEM MOLPRO  ***
                                       Copyright, TTI GmbH Stuttgart, 2015
                                    Version 2099.9 linked May 26 2017 16:03:21


 **********************************************************************************************************************************
 LABEL *                                                                                 
  64 bit serial version                                                                  DATE: 12-Jun-17          TIME: 20:06:01  
 **********************************************************************************************************************************

 SHA1:             b4a5b34a9e711420743f49e6833241d17c61fb3c
 **********************************************************************************************************************************
 SETTING GEOMTYP        =    XYZ

 Variable memory set to  500000000 words,  buffer space 

 ZSYMEL=NOSYM

 SETTING BASIS          =    SV(P)


 Recomputing integrals since basis changed


 Using spherical harmonics

 Library entry C      S def2-SV(P)           selected for orbital group  1
 Library entry C      P def2-SV(P)           selected for orbital group  1
 Library entry C      D def2-SV(P)           selected for orbital group  1
 Library entry O      S def2-SV(P)           selected for orbital group  2
 Library entry O      P def2-SV(P)           selected for orbital group  2
 Library entry O      D def2-SV(P)           selected for orbital group  2
 Library entry H      S def2-SV(P)           selected for orbital group  3


 PROGRAM * SEWARD (Integral evaluation for generally contracted gaussian basis sets)     Author: Roland Lindh, 1990

 Geometry written to block  1 of record 700


 Point group  C1  



 ATOMIC COORDINATES

 NR  ATOM    CHARGE       X              Y              Z

   1  C       6.00   -2.895684032    0.042462146    0.000000000
   2  C       6.00   -0.003628274    0.026853008    0.000000000
   3  O       8.00    0.703715112    2.652343999    0.000000000
   4  H       1.00    2.536919528    2.721885921    0.000000000
   5  H       1.00   -3.647001345   -1.886305720    0.000000000
   6  H       1.00   -3.605540754    1.027670861   -1.675298901
   7  H       1.00   -3.605540754    1.027670861    1.675298901
   8  C       6.00    1.026177977   -1.256025366   -2.392015328
   9  C       6.00    1.026177977   -1.256025366    2.392015328
  10  H       1.00    0.337051552   -0.278772398   -4.080731285
  11  H       1.00    0.337051552   -0.278772398    4.080731285
  12  H       1.00    0.448847749   -3.242770030   -2.499729718
  13  H       1.00    0.448847749   -3.242770030    2.499729718
  14  H       1.00    3.100738214   -1.205021658   -2.419454152
  15  H       1.00    3.100738214   -1.205021658    2.419454152

 Bond lengths in Bohr (Angstrom)

 1-2  2.892097881  1-5  2.069933136  1-6  2.069096224  1-7  2.069096224  2-3  2.719106031
     ( 1.530432290)     ( 1.095361444)     ( 1.094918569)     ( 1.094918569)     ( 1.438888946)

  2- 8  2.903104402   2- 9  2.903104402   3- 4  1.834522965   8-10  2.069222119   8-12  2.071730422
       ( 1.536256691)       ( 1.536256691)       ( 0.970787746)       ( 1.094985190)       ( 1.096312526)

  8-14  2.075368508   9-11  2.069222119   9-13  2.071730422   9-15  2.075368508
       ( 1.098237719)       ( 1.094985190)       ( 1.096312526)       ( 1.098237719)

 Bond angles

  1-2-3  104.76902697   1-2-8  110.92255387   1-2-9  110.92255387   2-1-5  110.97328220

  2- 1- 6  110.22090701   2- 1- 7  110.22090701   2- 3- 4  107.25071562   2- 8-10  110.21836376

  2- 8-12  111.57747468   2- 8-14  110.77023896   2- 9-11  110.21836376   2- 9-13  111.57747468

  2- 9-15  110.77023896   3- 2- 8  109.53648747   3- 2- 9  109.53648747   5- 1- 6  108.61190457

  5- 1- 7  108.61190457   6- 1- 7  108.12870271   8- 2- 9  110.96453384  10- 8-12  108.52192632

 10- 8-14  108.08997829  11- 9-13  108.52192632  11- 9-15  108.08997829  12- 8-14  107.54424578

 13- 9-15  107.54424578

 NUCLEAR CHARGE:                   42
 NUMBER OF PRIMITIVE AOS:         165
 NUMBER OF SYMMETRY AOS:          160
 NUMBER OF CONTRACTIONS:           90   (  90A   )
 NUMBER OF CORE ORBITALS:           5   (   5A   )
 NUMBER OF VALENCE ORBITALS:       30   (  30A   )


 NUCLEAR REPULSION ENERGY  198.77359127


 Eigenvalues of metric

         1 0.179E-02 0.600E-02 0.603E-02 0.144E-01 0.286E-01 0.297E-01 0.300E-01 0.361E-01


 Contracted 2-electron integrals neglected if value below      1.0D-11
 AO integral compression algorithm  1   Integral accuracy      1.0D-11

     37.487 MB (compressed) written to integral file ( 49.6%)


 NUMBER OF SORTED TWO-ELECTRON INTEGRALS:    8386560.     BUFFER LENGTH:  32768
 NUMBER OF SEGMENTS:   1  SEGMENT LENGTH:    8386560      RECORD LENGTH: 524288

 Memory used in sort:       8.94 MW

 SORT1 READ     9478508. AND WROTE     7931434. INTEGRALS IN     23 RECORDS. CPU TIME:     0.11 SEC, REAL TIME:     0.23 SEC
 SORT2 READ     7931434. AND WROTE     8386560. INTEGRALS IN    143 RECORDS. CPU TIME:     0.24 SEC, REAL TIME:     0.31 SEC

 FILE SIZES:   FILE 1:    68.0 MBYTE,  FILE 4:    96.5 MBYTE,   TOTAL:    164.5 MBYTE

 OPERATOR DM      FOR CENTER  0  COORDINATES:    0.000000    0.000000    0.000000


 **********************************************************************************************************************************
 DATASETS  * FILE   NREC   LENGTH (MB)   RECORD NAMES
              1      19       63.39       500      610      700      900      950      970     1000      129      960     1100   
                                          VAR    BASINP    GEOM    SYMINP    ZMAT    AOBASIS   BASIS     P2S    ABASIS      S 
                                         1400     1410     1200     1210     1080     1600     1650     1300     1700   
                                           T        V       H0       H01     AOSYM     SMH    MOLCAS    ERIS     OPER   

 PROGRAMS   *        TOTAL       INT
 CPU TIMES  *         1.84      1.70
 REAL TIME  *         2.52 SEC
 DISK USED  *       165.03 MB      
 **********************************************************************************************************************************

 Density functional group PBEREV=PBEXREV+PBEC
 Functional: PBEXREV(Automatically generated (new) PBEXREV)                    Gradient terms: 1
 Functional: PBEC(Automatically generated (new) PBEC)                          Gradient terms: 1
 Use grid at  1800.2

 Functional: PBEXREV                   Factor:  1.0000
 Functional: PBEC                      Factor:  1.0000

 Generated new metagrid on record  1800.2 with target accuracy 1.0D-06 and 53396 points in CPU time    1.6
 Computed new grid on record 1800.1 in CPU time    1.8
   75909 words reserved for DFT integration

 PROGRAM * UKS-SCF (Unrestricted Kohn-Sham)     Authors: W. Meyer, H.-J. Werner, P.J. Knowles, 1993

 NUMBER OF ELECTRONS:      21+   21-    SPACE SYMMETRY=1    SPIN SYMMETRY: Singlet 
 CONVERGENCE THRESHOLDS:    1.00E-05 (Density)    1.00E-06 (Energy)
 MAX. NUMBER OF ITERATIONS:       60
 INTERPOLATION TYPE:            DIIS
 INTERPOLATION STEPS:              2 (START)      1 (STEP)
 LEVEL SHIFTS:                 -0.20 (ALPHA)  -0.20 (BETA) 



 Use fine grid record 1800.2 for energy threshold  1.0D-06
 Orbital guess generated from atomic densities. Full valence occupancy:   21

 Molecular orbital dump at record        2200.2

 Initial alpha occupation  21
 Initial beta  occupation  21

 ITERATION    DDIFF          GRAD             ENERGY        2-EL.EN.            DIPOLE MOMENTS         DIIS
    1      0.000D+00      0.000D+00      -233.11660269    638.663042    0.73395   -0.78513    0.00000    0
    2      0.192D-01      0.798D-02      -233.32977102    614.980291    0.26835   -0.37114    0.00000    1
    3      0.640D-02      0.421D-02      -233.38912580    621.993242    0.40034   -0.50057    0.00000    2
    4      0.131D-02      0.543D-03      -233.39031464    621.752246    0.38499   -0.43817    0.00000    3
    5      0.947D-03      0.236D-03      -233.39067472    621.667751    0.38063   -0.43809    0.00000    4
    6      0.519D-03      0.560D-04      -233.39071852    621.650426    0.37867   -0.43055    0.00000    5
    7      0.102D-03      0.195D-04      -233.39072098    621.632156    0.37742   -0.43053    0.00000    6
    8      0.430D-04      0.105D-04      -233.39072161    621.641116    0.37745   -0.43120    0.00000    7
    9      0.118D-04      0.133D-05      -233.39072163    621.639910    0.37742   -0.43093    0.00000    6
   10      0.284D-05      0.322D-06      -233.39072163    621.640264    0.37739   -0.43101    0.00000    7
   11      0.454D-06      0.919D-07      -233.39072163    621.640105    0.37740   -0.43099    0.00000    6

 Final alpha occupancy:  21
 Final beta  occupancy:  21

 !UKS STATE 1.1 Energy               -233.390721634310
 Nuclear energy                       198.77359127
 One-electron energy                 -709.05734762
 Two-electron energy                  310.82005255
 Density functional                   -33.92701783     PBEXREV=-32.55009346 PBEC= -1.37692437
 Virial quotient                       -1.00952919
 !UKS STATE 1.1 Dipole moment           0.37740034    -0.43099062     0.00000000
 Dipole moment /Debye                   0.95919316    -1.09539713     0.00000000

 Orbital energies for positive spin:

         1.1          2.1          3.1          4.1          5.1          6.1          7.1          8.1          9.1         10.1
    -18.750575    -9.958248    -9.889286    -9.889271    -9.883948    -0.912689    -0.705093    -0.616499    -0.615564    -0.505810

        11.1         12.1         13.1         14.1         15.1         16.1         17.1         18.1         19.1         20.1
     -0.433705    -0.398427    -0.396507    -0.360245    -0.348910    -0.332537    -0.320541    -0.305306    -0.300931    -0.268549

        21.1         22.1         23.1
     -0.210368     0.022725     0.068710

 Orbital energies for negative spin:

         1.1          2.1          3.1          4.1          5.1          6.1          7.1          8.1          9.1         10.1
    -18.750575    -9.958248    -9.889286    -9.889271    -9.883948    -0.912689    -0.705093    -0.616499    -0.615564    -0.505810

        11.1         12.1         13.1         14.1         15.1         16.1         17.1         18.1         19.1         20.1
     -0.433705    -0.398427    -0.396507    -0.360245    -0.348910    -0.332537    -0.320541    -0.305306    -0.300931    -0.268549

        21.1         22.1         23.1
     -0.210368     0.022725     0.068710

 HOMO     21.1    -0.210368 =      -5.7244eV
 LUMO     22.1     0.022725 =       0.6184eV
 LUMO-HOMO         0.233093 =       6.3428eV

 EXPECTATION VALUE OF S**2:            -0.00000000

 Natural orbitals saved to record    2200.2 (Orbital set 3)

 Orbital spaces for UNO-CAS (Min. occupation: 0.020  Max. occupation: 1.980):

 Closed:       21
 Active:        0


 **********************************************************************************************************************************
 DATASETS  * FILE   NREC   LENGTH (MB)   RECORD NAMES
              1      20       65.10       500      610      700      900      950      970     1000      129      960     1100   
                                          VAR    BASINP    GEOM    SYMINP    ZMAT    AOBASIS   BASIS     P2S    ABASIS      S 
                                         1400     1410     1200     1210     1080     1600     1650     1300     1700     1800   
                                           T        V       H0       H01     AOSYM     SMH    MOLCAS    ERIS     OPER     GRID   

              2       5        3.34       700     1000      520     1800     2200   
                                         GEOM     BASIS   MCVARS    GRID      UKS  

 PROGRAMS   *        TOTAL       UKS       INT
 CPU TIMES  *        19.08     17.22      1.70
 REAL TIME  *        19.97 SEC
 DISK USED  *       165.03 MB      
 **********************************************************************************************************************************


 PROGRAM * Intrinsic Basis Bonding Analysis (IBBA)          Author: G. Knizia

 Molecular orbitals read from record     2200.2  Type=UKS/ALPHA (state 1.1)
 Fock matrix read from record            2200.2  Type=UKS/TOTAL (state 1.1)
 Orbital energies read from record       2200.2  Type=UKS/ALPHA (state 1.1)
 Density matrix read from record         2200.2  Type=UKS/CHARGE (state 1.1)

 Number of core orbitals:           5 (   5 )
 Number of closed-shell orbitals:  16 (  16 )

 Basis set MINAO-AUTO-PP generated.      Number of basis functions:   35 

 Polarized AO type:                A = (O Ot + (1-O)(1-Ot)) P12
 Orthogonalization method:         Symmetric (Loewdin)
 Localization functional:          L = sum[A,i] <i|n_A|i>^4 -> max

 Localization group 1:  21 orbitals, occupancy  2.000
 Iterative localization: IB/PM,    7 iter; Final gradient 0.33E-08

 Bond order analysis:       [THRPRINT= 0.020]

   CEN ATOM   CEN ATOM     WIBERG.BO      RENORM.BO
     1   C  -   2   C       0.994407       0.992559
     1   C  -   5   H       0.965031       0.986288
     1   C  -   6   H       0.960277       0.980224
     1   C  -   7   H       0.960277       0.980224

     2   C  -   1   C       0.994407       0.992559
     2   C  -   9   C       0.993196       0.972681
     2   C  -   8   C       0.993196       0.972681
     2   C  -   3   O       0.946697       0.950770

     3   O  -   2   C       0.946697       0.950770
     3   O  -   4   H       0.880445       0.974920
     3   O  -   8   C       0.030580       0.015700
     3   O  -   9   C       0.030580       0.015700

     4   H  -   3   O       0.880445       0.974920

     5   H  -   1   C       0.965031       0.986288

     6   H  -   1   C       0.960277       0.980224

     7   H  -   1   C       0.960277       0.980224

     8   C  -   2   C       0.993196       0.972681
     8   C  -  14   H       0.964201       0.980968
     8   C  -  10   H       0.960861       0.979978
     8   C  -  12   H       0.960233       0.979379
     8   C  -   3   O       0.030580       0.015700

     9   C  -   2   C       0.993196       0.972681
     9   C  -  15   H       0.964201       0.980968
     9   C  -  11   H       0.960861       0.979978
     9   C  -  13   H       0.960233       0.979379
     9   C  -   3   O       0.030580       0.015700

    10   H  -   8   C       0.960861       0.979978

    11   H  -   9   C       0.960861       0.979978

    12   H  -   8   C       0.960233       0.979379

    13   H  -   9   C       0.960233       0.979379

    14   H  -   8   C       0.964201       0.980968

    15   H  -   9   C       0.964201       0.980968


 Valency analysis:

   CEN ATOM   TOT.VALENCE
     1   C       3.944536
     2   C       3.938957
     3   O       1.961730
     4   H       0.901132
     5   H       0.984933
     6   H       0.982652
     7   H       0.982652
     8   C       3.946935
     9   C       3.946935
    10   H       0.982750
    11   H       0.982750
    12   H       0.984224
    13   H       0.984224
    14   H       0.986499
    15   H       0.986499

 Total charge composition:

   CEN ATOM         s          p       ELECTRONS ->P.CHARGE
     1   C       3.02294    3.35595      6.37890   -0.37890
     2   C       2.92684    2.83579      5.76263    0.23737
     3   O       3.63830    4.87964      8.51795   -0.51795
     4   H       0.68557                 0.68557    0.31443
     5   H       0.87725                 0.87725    0.12275
     6   H       0.86829                 0.86829    0.13171
     7   H       0.86829                 0.86829    0.13171
     8   C       3.02980    3.36390      6.39370   -0.39370
     9   C       3.02980    3.36390      6.39370   -0.39370
    10   H       0.86866                 0.86866    0.13134
    11   H       0.86866                 0.86866    0.13134
    12   H       0.87440                 0.87440    0.12560
    13   H       0.87440                 0.87440    0.12560
    14   H       0.88381                 0.88381    0.11619
    15   H       0.88381                 0.88381    0.11619

 Total charge composition, AO contributions:

   CEN ATOM SHL      SPHERICAL COMPONENTS
     1   C  1s       1.99114
     1   C  2s       1.03180
     1   C  2p       1.04084    1.15132    1.16380

     2   C  1s       1.99273
     2   C  2s       0.93411
     2   C  2p       1.01527    0.80520    1.01533

     3   O  1s       1.99715
     3   O  2s       1.64116
     3   O  2p       1.45057    1.47845    1.95062

     4   H  1s       0.68557

     5   H  1s       0.87725

     6   H  1s       0.86829

     7   H  1s       0.86829

     8   C  1s       1.99125
     8   C  2s       1.03855
     8   C  2p       1.13460    1.13634    1.09297

     9   C  1s       1.99125
     9   C  2s       1.03855
     9   C  2p       1.13460    1.13634    1.09297

    10   H  1s       0.86866

    11   H  1s       0.86866

    12   H  1s       0.87440

    13   H  1s       0.87440

    14   H  1s       0.88381

    15   H  1s       0.88381

 Summary of localized orbital composition:   [THRPRINT= 0.020]

   ORB  GRP  ORB.ENERGY      CENTERS/CHARGES
     1   1   -18.603350      O  3   2.000
     2   1    -9.869009      C  2   2.000
     3   1    -9.778452      C  8   2.000
     4   1    -9.778452      C  9   2.000
     5   1    -9.772341      C  1   2.000
     6   1    -0.688658      O  3   1.317   H  4   0.673
     7   1    -0.649617      O  3   1.266   C  2   0.715
     8   1    -0.513922      C  8   1.007   C  2   0.976
     9   1    -0.513922      C  9   1.007   C  2   0.976
    10   1    -0.513215      C  1   0.989   C  2   0.986   (other: 0.026)
    11   1    -0.478902      O  3   1.980   (other: 0.020)
    12   1    -0.449628      C  9   1.122   H 13   0.864
    13   1    -0.449628      C  8   1.122   H 12   0.864
    14   1    -0.449042      C  8   1.112   H 14   0.876
    15   1    -0.449042      C  9   1.112   H 15   0.876
    16   1    -0.445402      C  1   1.116   H  5   0.870
    17   1    -0.443768      C  9   1.129   H 11   0.860
    18   1    -0.443768      C  8   1.129   H 10   0.860
    19   1    -0.438832      C  1   1.129   H  6   0.860
    20   1    -0.438832      C  1   1.129   H  7   0.860
    21   1    -0.235261      O  3   1.951   (other: 0.049)

 Localized orbitals saved to record      2200.2  (orbital set 4)


 **********************************************************************************************************************************
 DATASETS  * FILE   NREC   LENGTH (MB)   RECORD NAMES
              1      20       65.10       500      610      700      900      950      970     1000      129      960     1100   
                                          VAR    BASINP    GEOM    SYMINP    ZMAT    AOBASIS   BASIS     P2S    ABASIS      S 
                                         1400     1410     1200     1210     1080     1600     1650     1300     1700     1800   
                                           T        V       H0       H01     AOSYM     SMH    MOLCAS    ERIS     OPER     GRID   

              2       5        3.40       700     1000      520     1800     2200   
                                         GEOM     BASIS   MCVARS    GRID      UKS  

 PROGRAMS   *        TOTAL      IBBA       UKS       INT
 CPU TIMES  *        19.12      0.04     17.22      1.70
 REAL TIME  *        20.14 SEC
 DISK USED  *       165.03 MB      
 **********************************************************************************************************************************
 Molecular orbitals read from record     2200.2  Type=UKS/LOCAL(IBO)  
 Occupation numbers read from record     2200.2  Type=UKS/LOCAL(IBO)  
 Orbital energies read from record       2200.2  Type=UKS/LOCAL(IBO)  
 Redundancy group numbers read from rec  2200.2  Type=UKS/BETA (state 1.1)

 IBBA/SV(P) energy=      0.000000000000

        UKS-SCF 
   -233.39072163
 **********************************************************************************************************************************
 Molpro calculation terminated
