
 Primary working directories    : /tmp/sb13343
 Secondary working directories  : /tmp/sb13343
 Wavefunction directory         : /panfs/panasas01/chem/sb13343/wfu/
 Main file repository           : /tmp/sb13343/

 SHA1      : b4a5b34a9e711420743f49e6833241d17c61fb3c
 NAME      : 2099.9.b4a5b34
 ARCHNAME  : linux/x86_64_openmp
 FC        : /cm/shared/languages/GCC-6.1/bin/gfortran
 BLASLIB   : -lblas
 id        : simonbennie

 Nodes     nprocs
 node32-045    1

 Using customized tuning parameters: mindgm=1; mindgv=20; mindgc=4; mindgr=1; noblas=0; minvec=7
 default implementation of scratch files=df  

 memory,500,m
 geomtyp=xyz
 nosym
 noorient
 geometry={
 C          0.00000        0.00000        0.00000
 C          0.00000        0.00000        1.53307
 O          1.40344        0.00000        1.86307
 C          1.76314        0.00000        3.22887
 H         -1.02289        0.00000       -0.39176
 H          0.51995       -0.88625       -0.37815
 H          0.51995        0.88625       -0.37815
 H          2.85677        0.00000        3.25413
 H          1.40708       -0.89217        3.76475
 H          1.40708        0.89217        3.76475
 C         -0.69252       -1.26694        2.06222
 C         -0.69252        1.26694        2.06222
 H         -0.15366       -2.16088        1.72982
 H         -0.15366        2.16088        1.72982
 H         -1.72011       -1.32515        1.68649
 H         -1.72011        1.32515        1.68649
 H         -0.74365       -1.28188        3.15638
 H         -0.74365        1.28188        3.15638
 }
 basis={ default,svp }
 {ks,MM06-HF,direct;wf,50,1,0}
 {ibba,bonds=1}

 Variables initialized (895), CPU time= 0.00 sec
 Commands  initialized (725), CPU time= 0.02 sec, 591 directives.
 Default parameters read. Elapsed time= 0.08 sec

 Checking input...
 Passed
1


                                         ***  PROGRAM SYSTEM MOLPRO  ***
                                       Copyright, TTI GmbH Stuttgart, 2015
                                    Version 2099.9 linked May 26 2017 16:03:21


 **********************************************************************************************************************************
 LABEL *                                                                                 
  64 bit serial version                                                                  DATE: 09-Jun-17          TIME: 01:57:49  
 **********************************************************************************************************************************

 SHA1:             b4a5b34a9e711420743f49e6833241d17c61fb3c
 **********************************************************************************************************************************
 SETTING GEOMTYP        =    XYZ

 Variable memory set to  500000000 words,  buffer space 

 ZSYMEL=NOSYM

 SETTING BASIS          =    SVP


 Recomputing integrals since basis changed


 Using spherical harmonics

 Library entry C      S def2-SVP             selected for orbital group  1
 Library entry C      P def2-SVP             selected for orbital group  1
 Library entry C      D def2-SVP             selected for orbital group  1
 Library entry O      S def2-SVP             selected for orbital group  2
 Library entry O      P def2-SVP             selected for orbital group  2
 Library entry O      D def2-SVP             selected for orbital group  2
 Library entry H      S def2-SVP             selected for orbital group  4
 Library entry H      P def2-SVP             selected for orbital group  4


 PROGRAM * SEWARD (Integral evaluation for generally contracted gaussian basis sets)     Author: Roland Lindh, 1990

 Geometry written to block  1 of record 700


 Point group  C1  



 ATOMIC COORDINATES

 NR  ATOM    CHARGE       X              Y              Z

   1  C       6.00    0.000000000    0.000000000    0.000000000
   2  C       6.00    0.000000000    0.000000000    2.897082430
   3  O       8.00    2.652117232    0.000000000    3.520692051
   4  C       6.00    3.331851719    0.000000000    6.101679992
   5  H       1.00   -1.932981956    0.000000000   -0.740319107
   6  H       1.00    0.982563098   -1.674769778   -0.714599934
   7  H       1.00    0.982563098    1.674769778   -0.714599934
   8  H       1.00    5.398512901    0.000000000    6.149414474
   9  H       1.00    2.658995835   -1.685956957    7.114346427
  10  H       1.00    2.658995835    1.685956957    7.114346427
  11  C       6.00   -1.308673136   -2.394169616    3.897031009
  12  C       6.00   -1.308673136    2.394169616    3.897031009
  13  H       1.00   -0.290375316   -4.083471388    3.268886045
  14  H       1.00   -0.290375316    4.083471388    3.268886045
  15  H       1.00   -3.250536804   -2.504170574    3.187004212
  16  H       1.00   -3.250536804    2.504170574    3.187004212
  17  H       1.00   -1.405294833   -2.422402125    5.964693745
  18  H       1.00   -1.405294833    2.422402125    5.964693745

 Bond lengths in Bohr (Angstrom)

 1-2  2.897082430  1-5  2.069901355  1-6  2.069042560  1-7  2.069042560  2-3  2.724447609
     ( 1.533070000)     ( 1.095344626)     ( 1.094890171)     ( 1.094890171)     ( 1.441715587)

  2-11  2.905954351   2-12  2.905954351   3- 4  2.668995640   4- 8  2.067212379   4- 9  2.078624355
       ( 1.537764818)       ( 1.537764818)       ( 1.412371669)       ( 1.093921681)       ( 1.099960639)

  4-10  2.078624355  11-13  2.070081404  11-15  2.070524757  11-17  2.070111596  12-14  2.070081404
       ( 1.099960639)       ( 1.095439904)       ( 1.095674516)       ( 1.095455880)       ( 1.095439904)

 12-16  2.070524757  12-18  2.070111596
       ( 1.095674516)       ( 1.095455880)

 Bond angles

  1- 2- 3  103.23196371   1- 2-11  110.12706952   1- 2-12  110.12706952   2- 1- 5  110.95650426

  2- 1- 6  110.20481748   2- 1- 7  110.20481748   2- 3- 4  117.98647004   2-11-13  110.26679927

  2-11-15  110.37287188   2-11-17  112.08316935   2-12-14  110.26679927   2-12-16  110.37287188

  2-12-18  112.08316935   3- 2-11  111.07703285   3- 2-12  111.07703285   3- 4- 8  106.07765410

  3- 4- 9  112.87219182   3- 4-10  112.87219182   5- 1- 6  108.65976572   5- 1- 7  108.65976572

  6- 1- 7  108.08288210   8- 4- 9  108.20190897   8- 4-10  108.20190897   9- 4-10  108.40564999

 11- 2-12  110.95103964  13-11-15  108.29648994  13-11-17  108.35544687  14-12-16  108.29648994

 14-12-18  108.35544687  15-11-17  107.33851825  16-12-18  107.33851825

 NUCLEAR CHARGE:                   50
 NUMBER OF PRIMITIVE AOS:         234
 NUMBER OF SYMMETRY AOS:          228
 NUMBER OF CONTRACTIONS:          144   ( 144A   )
 NUMBER OF CORE ORBITALS:           6   (   6A   )
 NUMBER OF VALENCE ORBITALS:       36   (  36A   )


 NUCLEAR REPULSION ENERGY  270.15500869


 Eigenvalues of metric

         1 0.176E-02 0.508E-02 0.513E-02 0.102E-01 0.124E-01 0.215E-01 0.221E-01 0.252E-01


 Contracted 2-electron integrals neglected if value below      1.0D-11
 AO integral compression algorithm  1   Integral accuracy      1.0D-11

     186.384 MB (compressed) written to integral file ( 41.3%)


 NUMBER OF SORTED TWO-ELECTRON INTEGRALS:   54502020.     BUFFER LENGTH:  32768
 NUMBER OF SEGMENTS:   4  SEGMENT LENGTH:   15999503      RECORD LENGTH: 524288

 Memory used in sort:      16.56 MW

 SORT1 READ    56333432. AND WROTE    45703433. INTEGRALS IN    132 RECORDS. CPU TIME:     0.71 SEC, REAL TIME:     1.36 SEC
 SORT2 READ    45703433. AND WROTE    54502020. INTEGRALS IN    711 RECORDS. CPU TIME:     1.04 SEC, REAL TIME:     1.34 SEC

 FILE SIZES:   FILE 1:   217.4 MBYTE,  FILE 4:   553.7 MBYTE,   TOTAL:    771.1 MBYTE

 OPERATOR DM      FOR CENTER  0  COORDINATES:    0.000000    0.000000    0.000000


 **********************************************************************************************************************************
 DATASETS  * FILE   NREC   LENGTH (MB)   RECORD NAMES
              1      19      194.45       500      610      700      900      950      970     1000      129      960     1100   
                                          VAR    BASINP    GEOM    SYMINP    ZMAT    AOBASIS   BASIS     P2S    ABASIS      S 
                                         1400     1410     1200     1210     1080     1600     1650     1300     1700   
                                           T        V       H0       H01     AOSYM     SMH    MOLCAS    ERIS     OPER   

 PROGRAMS   *        TOTAL       INT
 CPU TIMES  *         6.92      6.78
 REAL TIME  *         9.29 SEC
 DISK USED  *       771.70 MB      
 **********************************************************************************************************************************

 Density functional group MM06-HF=M06HFX+M06HFC
 Functional: M06HFX(Automatically generated (new) M06HFX)                      Gradient terms: 2
 Functional: M06HFC(Automatically generated (new) M06HFC)                      Gradient terms: 2
 Use grid at  1800.2


 Exact exchange will be calculated, factor:  1.0000

 Functional: M06HFX                    Factor:  1.0000
 Functional: M06HFC                    Factor:  1.0000

 Generated new metagrid on record  1800.2 with target accuracy 1.0D-06 and 66012 points in CPU time    1.8
 Computed new grid on record 1800.1 in CPU time    2.1
  228438 words reserved for DFT integration

 PROGRAM * RKS-SCF (Restricted closed shell Kohn-Sham)     Authors: W. Meyer, H.-J. Werner, P.J. Knowles, 1993

 NUMBER OF ELECTRONS:      25+   25-    SPACE SYMMETRY=1    SPIN SYMMETRY: Singlet 
 CONVERGENCE THRESHOLDS:    1.00E-05 (Density)    1.00E-06 (Energy)
 MAX. NUMBER OF ITERATIONS:       60
 INTERPOLATION TYPE:            DIIS
 INTERPOLATION STEPS:              2 (START)      1 (STEP)
 LEVEL SHIFTS:                  0.00 (CLOSED)  0.00 (OPEN) 



 Use fine grid record 1800.2 for energy threshold  1.0D-06
 Orbital guess generated from atomic densities. Full valence occupancy:   25

 Molecular orbital dump at record        2100.2

 Initial occupancy:  25

 ITERATION    DDIFF          GRAD             ENERGY        2-EL.EN.            DIPOLE MOMENTS         DIIS   ORB.
    1      0.000D+00      0.000D+00      -272.56868010    728.927489   -0.69205   -0.00000    0.58925    0    start
    2      0.000D+00      0.491D-02      -272.64244221    721.713190   -0.30951   -0.00000    0.23865    1    diag
    3      0.646D-02      0.263D-02      -272.65982432    724.980852   -0.41743   -0.00000    0.39852    2    diag
    4      0.252D-02      0.734D-03      -272.66142294    724.595574   -0.37189   -0.00000    0.37154    3    diag
    5      0.909D-03      0.319D-03      -272.66169777    724.574902   -0.39119   -0.00000    0.37903    4    diag
    6      0.336D-03      0.564D-04      -272.66170745    724.583484   -0.38437   -0.00000    0.37884    5    diag
    7      0.715D-04      0.807D-05      -272.66170776    724.588072   -0.38500   -0.00000    0.37896    6    diag
    8      0.187D-04      0.230D-05      -272.66170778    724.586801   -0.38475   -0.00000    0.37906    7    diag
    9      0.326D-05      0.724D-06      -272.66170778    724.587289   -0.38473   -0.00000    0.37902    0    orth

 Final occupancy:  25

 !RKS STATE 1.1 Energy               -272.661707780264
 Nuclear energy                       270.15500869
 One-electron energy                 -903.40262195
 Two-electron energy                  362.29364462
 SCF exchange energy                  -38.34186705     Factor= 1.0000
 Density functional                    -1.70773915     M06HFX= 0.11647980 M06HFC=-1.82421895
 Virial quotient                       -1.01229617
 !RKS STATE 1.1 Dipole moment          -0.38472885    -0.00000000     0.37901542
 Dipole moment /Debye                  -0.97781914    -0.00000000     0.96329801

 Orbital energies:

         1.1          2.1          3.1          4.1          5.1          6.1          7.1          8.1          9.1         10.1
    -20.198513   -11.026536   -11.018454   -10.969986   -10.969961   -10.964143    -1.240124    -0.996687    -0.888661    -0.880748

        11.1         12.1         13.1         14.1         15.1         16.1         17.1         18.1         19.1         20.1
     -0.856289    -0.717598    -0.643394    -0.631321    -0.626827    -0.588326    -0.569882    -0.546293    -0.530181    -0.519210

        21.1         22.1         23.1         24.1         25.1         26.1         27.1
     -0.512808    -0.482832    -0.481998    -0.437772    -0.404059     0.113248     0.150454

 HOMO     25.1    -0.404059 =     -10.9950eV
 LUMO     26.1     0.113248 =       3.0816eV
 LUMO-HOMO         0.517307 =      14.0766eV


 **********************************************************************************************************************************
 DATASETS  * FILE   NREC   LENGTH (MB)   RECORD NAMES
              1      20      196.57       500      610      700      900      950      970     1000      129      960     1100   
                                          VAR    BASINP    GEOM    SYMINP    ZMAT    AOBASIS   BASIS     P2S    ABASIS      S 
                                         1400     1410     1200     1210     1080     1600     1650     1300     1700     1800   
                                           T        V       H0       H01     AOSYM     SMH    MOLCAS    ERIS     OPER     GRID   

              2       5        3.48       700     1000      520     1800     2100   
                                         GEOM     BASIS   MCVARS    GRID      RKS  

 PROGRAMS   *        TOTAL        KS       INT
 CPU TIMES  *        70.81     63.88      6.78
 REAL TIME  *        74.19 SEC
 DISK USED  *       771.70 MB      
 **********************************************************************************************************************************


 PROGRAM * Intrinsic Basis Bonding Analysis (IBBA)          Author: G. Knizia

 Molecular orbitals read from record     2100.2  Type=RKS/CANONICAL (state 1.1)
 Fock matrix read from record            2100.2  Type=RKS/TOTAL (state 1.1)
 Orbital energies read from record       2100.2  Type=RKS/CANONICAL (state 1.1)
 Density matrix read from record         2100.2  Type=RKS/CHARGE (state 1.1)

 Number of core orbitals:           6 (   6 )
 Number of closed-shell orbitals:  19 (  19 )

 Basis set MINAO-AUTO-PP generated.      Number of basis functions:   42 

 Polarized AO type:                A = (O Ot + (1-O)(1-Ot)) P12
 Orthogonalization method:         Symmetric (Loewdin)
 Localization functional:          L = sum[A,i] <i|n_A|i>^4 -> max

 Localization group 1:  25 orbitals, occupancy  2.000
 Iterative localization: IB/PM,    7 iter; Final gradient 0.35E-08

 Bond order analysis:       [THRPRINT= 0.020]

   CEN ATOM   CEN ATOM     WIBERG.BO      RENORM.BO
     1   C  -   2   C       0.993933       0.994846
     1   C  -   5   H       0.967749       0.987695
     1   C  -   7   H       0.962264       0.984659
     1   C  -   6   H       0.962264       0.984659

     2   C  -   1   C       0.993933       0.994846
     2   C  -  11   C       0.991055       0.975498
     2   C  -  12   C       0.991055       0.975498
     2   C  -   3   O       0.934661       0.948970

     3   O  -   4   C       0.978299       1.010948
     3   O  -   2   C       0.934661       0.948970
     3   O  -   9   H       0.025525       0.014929
     3   O  -  10   H       0.025525       0.014929
     3   O  -  11   C       0.022034       0.011581
     3   O  -  12   C       0.022034       0.011581

     4   C  -   3   O       0.978299       1.010948
     4   C  -   8   H       0.961347       0.982070
     4   C  -  10   H       0.958188       0.953186
     4   C  -   9   H       0.958188       0.953186

     5   H  -   1   C       0.967749       0.987695

     6   H  -   1   C       0.962264       0.984659

     7   H  -   1   C       0.962264       0.984659

     8   H  -   4   C       0.961347       0.982070

     9   H  -   4   C       0.958188       0.953186
     9   H  -   3   O       0.025525       0.014929

    10   H  -   4   C       0.958188       0.953186
    10   H  -   3   O       0.025525       0.014929

    11   C  -   2   C       0.991055       0.975498
    11   C  -  17   H       0.965970       0.984579
    11   C  -  15   H       0.964557       0.989405
    11   C  -  13   H       0.962453       0.984792
    11   C  -   3   O       0.022034       0.011581

    12   C  -   2   C       0.991055       0.975498
    12   C  -  18   H       0.965970       0.984579
    12   C  -  16   H       0.964557       0.989405
    12   C  -  14   H       0.962453       0.984792
    12   C  -   3   O       0.022034       0.011581

    13   H  -  11   C       0.962453       0.984792

    14   H  -  12   C       0.962453       0.984792

    15   H  -  11   C       0.964557       0.989405

    16   H  -  12   C       0.964557       0.989405

    17   H  -  11   C       0.965970       0.984579

    18   H  -  12   C       0.965970       0.984579


 Valency analysis:

   CEN ATOM   TOT.VALENCE
     1   C       3.937163
     2   C       3.936417
     3   O       2.063855
     4   C       3.873804
     5   H       0.985764
     6   H       0.982053
     7   H       0.982053
     8   H       0.980099
     9   H       0.988058
    10   H       0.988058
    11   C       3.938279
    12   C       3.938279
    13   H       0.982156
    14   H       0.982156
    15   H       0.983647
    16   H       0.983647
    17   H       0.985579
    18   H       0.985579

 Total charge composition:

   CEN ATOM         s          p       ELECTRONS ->P.CHARGE
     1   C       2.99523    3.37040      6.36563   -0.36563
     2   C       2.91374    2.88225      5.79600    0.20400
     3   O       3.55955    4.85105      8.41060   -0.41060
     4   C       2.98779    3.17487      6.16265   -0.16265
     5   H       0.88069                 0.88069    0.11931
     6   H       0.86603                 0.86603    0.13397
     7   H       0.86603                 0.86603    0.13397
     8   H       0.85893                 0.85893    0.14107
     9   H       0.89072                 0.89072    0.10928
    10   H       0.89072                 0.89072    0.10928
    11   C       2.99489    3.39266      6.38754   -0.38754
    12   C       2.99489    3.39266      6.38754   -0.38754
    13   H       0.86642                 0.86642    0.13358
    14   H       0.86642                 0.86642    0.13358
    15   H       0.87212                 0.87212    0.12788
    16   H       0.87212                 0.87212    0.12788
    17   H       0.87991                 0.87991    0.12009
    18   H       0.87991                 0.87991    0.12009

 Total charge composition, AO contributions:

   CEN ATOM SHL      SPHERICAL COMPONENTS
     1   C  1s       1.99039
     1   C  2s       1.00484
     1   C  2p       1.16165    1.17736    1.03139

     2   C  1s       1.99210
     2   C  2s       0.92165
     2   C  2p       0.81193    1.03168    1.03864

     3   O  1s       1.99706
     3   O  2s       1.56248
     3   O  2p       1.44765    1.93134    1.47206

     4   C  1s       1.99103
     4   C  2s       0.99676
     4   C  2p       1.15759    1.16657    0.85071

     5   H  1s       0.88069

     6   H  1s       0.86603

     7   H  1s       0.86603

     8   H  1s       0.85893

     9   H  1s       0.89072

    10   H  1s       0.89072

    11   C  1s       1.99044
    11   C  2s       1.00445
    11   C  2p       1.14594    1.09557    1.15115

    12   C  1s       1.99044
    12   C  2s       1.00445
    12   C  2p       1.14594    1.09557    1.15115

    13   H  1s       0.86642

    14   H  1s       0.86642

    15   H  1s       0.87212

    16   H  1s       0.87212

    17   H  1s       0.87991

    18   H  1s       0.87991

 Summary of localized orbital composition:   [THRPRINT= 0.020]

   ORB  GRP  ORB.ENERGY      CENTERS/CHARGES
     1   1   -20.050312      O  3   2.000
     2   1   -10.929650      C  2   2.000
     3   1   -10.903631      C  4   2.000
     4   1   -10.850444      C 11   2.000
     5   1   -10.850444      C 12   2.000
     6   1   -10.843876      C  1   2.000
     7   1    -0.959387      O  3   1.247   C  4   0.747
     8   1    -0.922007      O  3   1.259   C  2   0.722
     9   1    -0.728168      C 11   0.996   C  2   0.989
    10   1    -0.728168      C 12   0.996   C  2   0.989
    11   1    -0.724496      C  2   1.008   C  1   0.972   (other: 0.021)
    12   1    -0.713518      O  3   1.968   (other: 0.032)
    13   1    -0.687786      C  4   1.123   H  9   0.875
    14   1    -0.687786      C  4   1.123   H 10   0.875
    15   1    -0.681951      C  4   1.141   H  8   0.852
    16   1    -0.665106      C 12   1.118   H 18   0.873
    17   1    -0.665106      C 11   1.118   H 17   0.873
    18   1    -0.665096      C 11   1.122   H 15   0.865
    19   1    -0.665096      C 12   1.122   H 16   0.865
    20   1    -0.662231      C 12   1.132   H 14   0.859
    21   1    -0.662231      C 11   1.132   H 13   0.859
    22   1    -0.661686      C  1   1.115   H  5   0.874
    23   1    -0.655844      C  1   1.132   H  7   0.858
    24   1    -0.655844      C  1   1.132   H  6   0.858
    25   1    -0.482741      O  3   1.931   (other: 0.069)

 Localized orbitals saved to record      2100.2  (orbital set 2)


 **********************************************************************************************************************************
 DATASETS  * FILE   NREC   LENGTH (MB)   RECORD NAMES
              1      20      196.57       500      610      700      900      950      970     1000      129      960     1100   
                                          VAR    BASINP    GEOM    SYMINP    ZMAT    AOBASIS   BASIS     P2S    ABASIS      S 
                                         1400     1410     1200     1210     1080     1600     1650     1300     1700     1800   
                                           T        V       H0       H01     AOSYM     SMH    MOLCAS    ERIS     OPER     GRID   

              2       5        3.65       700     1000      520     1800     2100   
                                         GEOM     BASIS   MCVARS    GRID      RKS  

 PROGRAMS   *        TOTAL      IBBA        KS       INT
 CPU TIMES  *        70.87      0.05     63.88      6.78
 REAL TIME  *        74.35 SEC
 DISK USED  *       771.70 MB      
 **********************************************************************************************************************************
 Molecular orbitals read from record     2100.2  Type=RKS/LOCAL(IBO)  
 Occupation numbers read from record     2100.2  Type=RKS/LOCAL(IBO)  
 Orbital energies read from record       2100.2  Type=RKS/LOCAL(IBO)  
 Redundancy group numbers read from rec  2100.2  Type=RKS/LOCAL(IBO)  

 IBBA/SVP energy=      0.000000000000

        KS-SCF  
   -272.66170778
 **********************************************************************************************************************************
 Molpro calculation terminated
