
 Primary working directories    : /tmp/sb13343
 Secondary working directories  : /tmp/sb13343
 Wavefunction directory         : /panfs/panasas01/chem/sb13343/wfu/
 Main file repository           : /tmp/sb13343/

 SHA1      : b4a5b34a9e711420743f49e6833241d17c61fb3c
 NAME      : 2099.9.b4a5b34
 ARCHNAME  : linux/x86_64_openmp
 FC        : /cm/shared/languages/GCC-6.1/bin/gfortran
 BLASLIB   : -lblas
 id        : simonbennie

 Nodes     nprocs
 node32-029    1

 Using customized tuning parameters: mindgm=1; mindgv=20; mindgc=4; mindgr=1; noblas=0; minvec=7
 default implementation of scratch files=df  

 memory,500,m
 geomtyp=xyz
 nosym
 noorient
 geometry={
 C          0.00000        0.00000        0.00000
 C          0.00000        0.00000        1.53307
 O          1.40344        0.00000        1.86307
 C          1.76314        0.00000        3.22887
 H         -1.02289        0.00000       -0.39176
 H          0.51995       -0.88625       -0.37815
 H          0.51995        0.88625       -0.37815
 H          2.85677        0.00000        3.25413
 H          1.40708       -0.89217        3.76475
 H          1.40708        0.89217        3.76475
 C         -0.69252       -1.26694        2.06222
 C         -0.69252        1.26694        2.06222
 H         -0.15366       -2.16088        1.72982
 H         -0.15366        2.16088        1.72982
 H         -1.72011       -1.32515        1.68649
 H         -1.72011        1.32515        1.68649
 H         -0.74365       -1.28188        3.15638
 H         -0.74365        1.28188        3.15638
 }
 basis={ default,sto-3g }
 {uks,M11-L,direct;wf,50,1,0}
 {ibba,bonds=1}

 Variables initialized (895), CPU time= 0.00 sec
 Commands  initialized (725), CPU time= 0.02 sec, 591 directives.
 Default parameters read. Elapsed time= 0.07 sec

 Checking input...
 Passed
1


                                         ***  PROGRAM SYSTEM MOLPRO  ***
                                       Copyright, TTI GmbH Stuttgart, 2015
                                    Version 2099.9 linked May 26 2017 16:03:21


 **********************************************************************************************************************************
 LABEL *                                                                                 
  64 bit serial version                                                                  DATE: 09-Jun-17          TIME: 01:47:41  
 **********************************************************************************************************************************

 SHA1:             b4a5b34a9e711420743f49e6833241d17c61fb3c
 **********************************************************************************************************************************
 SETTING GEOMTYP        =    XYZ

 Variable memory set to  500000000 words,  buffer space 

 ZSYMEL=NOSYM

 SETTING BASIS          =    STO-3G


 Recomputing integrals since basis changed


 Using spherical harmonics

 Library entry C      S STO-3G               selected for orbital group  1
 Library entry C      P STO-3G               selected for orbital group  1
 Library entry O      S STO-3G               selected for orbital group  2
 Library entry O      P STO-3G               selected for orbital group  2
 Library entry H      S STO-3G               selected for orbital group  4


 PROGRAM * SEWARD (Integral evaluation for generally contracted gaussian basis sets)     Author: Roland Lindh, 1990

 Geometry written to block  1 of record 700


 Point group  C1  



 ATOMIC COORDINATES

 NR  ATOM    CHARGE       X              Y              Z

   1  C       6.00    0.000000000    0.000000000    0.000000000
   2  C       6.00    0.000000000    0.000000000    2.897082430
   3  O       8.00    2.652117232    0.000000000    3.520692051
   4  C       6.00    3.331851719    0.000000000    6.101679992
   5  H       1.00   -1.932981956    0.000000000   -0.740319107
   6  H       1.00    0.982563098   -1.674769778   -0.714599934
   7  H       1.00    0.982563098    1.674769778   -0.714599934
   8  H       1.00    5.398512901    0.000000000    6.149414474
   9  H       1.00    2.658995835   -1.685956957    7.114346427
  10  H       1.00    2.658995835    1.685956957    7.114346427
  11  C       6.00   -1.308673136   -2.394169616    3.897031009
  12  C       6.00   -1.308673136    2.394169616    3.897031009
  13  H       1.00   -0.290375316   -4.083471388    3.268886045
  14  H       1.00   -0.290375316    4.083471388    3.268886045
  15  H       1.00   -3.250536804   -2.504170574    3.187004212
  16  H       1.00   -3.250536804    2.504170574    3.187004212
  17  H       1.00   -1.405294833   -2.422402125    5.964693745
  18  H       1.00   -1.405294833    2.422402125    5.964693745

 Bond lengths in Bohr (Angstrom)

 1-2  2.897082430  1-5  2.069901355  1-6  2.069042560  1-7  2.069042560  2-3  2.724447609
     ( 1.533070000)     ( 1.095344626)     ( 1.094890171)     ( 1.094890171)     ( 1.441715587)

  2-11  2.905954351   2-12  2.905954351   3- 4  2.668995640   4- 8  2.067212379   4- 9  2.078624355
       ( 1.537764818)       ( 1.537764818)       ( 1.412371669)       ( 1.093921681)       ( 1.099960639)

  4-10  2.078624355  11-13  2.070081404  11-15  2.070524757  11-17  2.070111596  12-14  2.070081404
       ( 1.099960639)       ( 1.095439904)       ( 1.095674516)       ( 1.095455880)       ( 1.095439904)

 12-16  2.070524757  12-18  2.070111596
       ( 1.095674516)       ( 1.095455880)

 Bond angles

  1- 2- 3  103.23196371   1- 2-11  110.12706952   1- 2-12  110.12706952   2- 1- 5  110.95650426

  2- 1- 6  110.20481748   2- 1- 7  110.20481748   2- 3- 4  117.98647004   2-11-13  110.26679927

  2-11-15  110.37287188   2-11-17  112.08316935   2-12-14  110.26679927   2-12-16  110.37287188

  2-12-18  112.08316935   3- 2-11  111.07703285   3- 2-12  111.07703285   3- 4- 8  106.07765410

  3- 4- 9  112.87219182   3- 4-10  112.87219182   5- 1- 6  108.65976572   5- 1- 7  108.65976572

  6- 1- 7  108.08288210   8- 4- 9  108.20190897   8- 4-10  108.20190897   9- 4-10  108.40564999

 11- 2-12  110.95103964  13-11-15  108.29648994  13-11-17  108.35544687  14-12-16  108.29648994

 14-12-18  108.35544687  15-11-17  107.33851825  16-12-18  107.33851825

 NUCLEAR CHARGE:                   50
 NUMBER OF PRIMITIVE AOS:         126
 NUMBER OF SYMMETRY AOS:          126
 NUMBER OF CONTRACTIONS:           42   (  42A   )
 NUMBER OF CORE ORBITALS:           6   (   6A   )
 NUMBER OF VALENCE ORBITALS:       36   (  36A   )


 NUCLEAR REPULSION ENERGY  270.15500869


 Eigenvalues of metric

         1 0.207E+00 0.226E+00 0.228E+00 0.234E+00 0.307E+00 0.355E+00 0.359E+00 0.362E+00


 Contracted 2-electron integrals neglected if value below      1.0D-11
 AO integral compression algorithm  1   Integral accuracy      1.0D-11

     2.884 MB (compressed) written to integral file ( 84.3%)


 NUMBER OF SORTED TWO-ELECTRON INTEGRALS:     408156.     BUFFER LENGTH:  32768
 NUMBER OF SEGMENTS:   1  SEGMENT LENGTH:     408156      RECORD LENGTH: 524288

 Memory used in sort:       0.97 MW

 SORT1 READ      453477. AND WROTE      382834. INTEGRALS IN      2 RECORDS. CPU TIME:     0.01 SEC, REAL TIME:     0.03 SEC
 SORT2 READ      382834. AND WROTE      408156. INTEGRALS IN     11 RECORDS. CPU TIME:     0.04 SEC, REAL TIME:     0.04 SEC

 FILE SIZES:   FILE 1:    33.2 MBYTE,  FILE 4:     8.4 MBYTE,   TOTAL:     41.6 MBYTE

 OPERATOR DM      FOR CENTER  0  COORDINATES:    0.000000    0.000000    0.000000


 **********************************************************************************************************************************
 DATASETS  * FILE   NREC   LENGTH (MB)   RECORD NAMES
              1      19       31.98       500      610      700      900      950      970     1000      129      960     1100   
                                          VAR    BASINP    GEOM    SYMINP    ZMAT    AOBASIS   BASIS     P2S    ABASIS      S 
                                         1400     1410     1200     1210     1080     1600     1650     1300     1700   
                                           T        V       H0       H01     AOSYM     SMH    MOLCAS    ERIS     OPER   

 PROGRAMS   *        TOTAL       INT
 CPU TIMES  *         0.99      0.84
 REAL TIME  *         1.43 SEC
 DISK USED  *        42.19 MB      
 **********************************************************************************************************************************

 Density functional group M11-L=XC-M11-L
 Functional: XC-M11-L(via MFM 1.6)                                             Gradient terms: 1
 Use grid at  1800.2

 Functional: XC-M11-L                  Factor:  1.0000

 Generated new metagrid on record  1800.2 with target accuracy 1.0D-06 and 66012 points in CPU time    2.0
 Computed new grid on record 1800.1 in CPU time    2.3
   38106 words reserved for DFT integration

 PROGRAM * UKS-SCF (Unrestricted Kohn-Sham)     Authors: W. Meyer, H.-J. Werner, P.J. Knowles, 1993

 NUMBER OF ELECTRONS:      25+   25-    SPACE SYMMETRY=1    SPIN SYMMETRY: Singlet 
 CONVERGENCE THRESHOLDS:    1.00E-05 (Density)    1.00E-06 (Energy)
 MAX. NUMBER OF ITERATIONS:       60
 INTERPOLATION TYPE:            DIIS
 INTERPOLATION STEPS:              2 (START)      1 (STEP)
 LEVEL SHIFTS:                 -0.20 (ALPHA)  -0.20 (BETA) 



 Use fine grid record 1800.2 for energy threshold  1.0D-06
 Orbital guess generated from atomic densities. Full valence occupancy:   25

 Molecular orbital dump at record        2200.2

 Initial alpha occupation  25
 Initial beta  occupation  25

 ITERATION    DDIFF          GRAD             ENERGY        2-EL.EN.            DIPOLE MOMENTS         DIIS
    1      0.000D+00      0.000D+00      -268.29451776    823.247602   -0.96006    0.00000    0.84980    0
    2      0.519D-01      0.170D-01      -268.67491784    801.087117   -0.23925    0.00000    0.06080    1
    3      0.594D-02      0.252D-02      -268.68126242    803.198211   -0.33818    0.00000    0.20292    2
    4      0.902D-03      0.294D-03      -268.68142182    803.132665   -0.34705    0.00000    0.20967    3
    5      0.324D-03      0.905D-04      -268.68144041    803.132425   -0.34663    0.00000    0.21228    4
    6      0.143D-03      0.261D-04      -268.68144253    803.132528   -0.34551    0.00000    0.21236    5
    7      0.220D-04      0.456D-05      -268.68144258    803.131863   -0.34573    0.00000    0.21260    5
    8      0.507D-05      0.152D-05      -268.68144259    803.131900   -0.34560    0.00000    0.21249    6
    9      0.122D-05      0.405D-06      -268.68144259    803.132040   -0.34563    0.00000    0.21251    6

 Final alpha occupancy:  25
 Final beta  occupancy:  25

 !UKS STATE 1.1 Energy               -268.681442587588
 Nuclear energy                       270.15500869
 One-electron energy                 -900.97275995
 Two-electron energy                  401.56602007
 Density functional                   -39.42971140     XC-M11-L=-39.42971140
 Virial quotient                       -1.01072969
 !UKS STATE 1.1 Dipole moment          -0.34562724     0.00000000     0.21250704
 Dipole moment /Debye                  -0.87843928     0.00000000     0.54010365

 Orbital energies for positive spin:

         1.1          2.1          3.1          4.1          5.1          6.1          7.1          8.1          9.1         10.1
    -18.909900   -10.101683   -10.075879   -10.032658   -10.032635   -10.032553    -0.966083    -0.737708    -0.634781    -0.632513

        11.1         12.1         13.1         14.1         15.1         16.1         17.1         18.1         19.1         20.1
     -0.608849    -0.484391    -0.411620    -0.387534    -0.384230    -0.361891    -0.343185    -0.330462    -0.319756    -0.307766

        21.1         22.1         23.1         24.1         25.1         26.1         27.1
     -0.305025    -0.277314    -0.273119    -0.181643    -0.116561     0.251270     0.333928

 Orbital energies for negative spin:

         1.1          2.1          3.1          4.1          5.1          6.1          7.1          8.1          9.1         10.1
    -18.909900   -10.101683   -10.075879   -10.032658   -10.032635   -10.032553    -0.966083    -0.737708    -0.634781    -0.632513

        11.1         12.1         13.1         14.1         15.1         16.1         17.1         18.1         19.1         20.1
     -0.608849    -0.484391    -0.411620    -0.387534    -0.384230    -0.361891    -0.343185    -0.330462    -0.319756    -0.307766

        21.1         22.1         23.1         24.1         25.1         26.1         27.1
     -0.305025    -0.277314    -0.273119    -0.181643    -0.116561     0.251270     0.333928

 HOMO     25.1    -0.116561 =      -3.1718eV
 LUMO     26.1     0.251270 =       6.8374eV
 LUMO-HOMO         0.367831 =      10.0092eV

 EXPECTATION VALUE OF S**2:            -0.00000000

 Natural orbitals saved to record    2200.2 (Orbital set 3)

 Orbital spaces for UNO-CAS (Min. occupation: 0.020  Max. occupation: 1.980):

 Closed:       25
 Active:        0


 **********************************************************************************************************************************
 DATASETS  * FILE   NREC   LENGTH (MB)   RECORD NAMES
              1      20       34.09       500      610      700      900      950      970     1000      129      960     1100   
                                          VAR    BASINP    GEOM    SYMINP    ZMAT    AOBASIS   BASIS     P2S    ABASIS      S 
                                         1400     1410     1200     1210     1080     1600     1650     1300     1700     1800   
                                           T        V       H0       H01     AOSYM     SMH    MOLCAS    ERIS     OPER     GRID   

              2       5        3.13       700     1000      520     1800     2200   
                                         GEOM     BASIS   MCVARS    GRID      UKS  

 PROGRAMS   *        TOTAL       UKS       INT
 CPU TIMES  *        19.26     18.26      0.84
 REAL TIME  *        19.96 SEC
 DISK USED  *        42.19 MB      
 **********************************************************************************************************************************


 PROGRAM * Intrinsic Basis Bonding Analysis (IBBA)          Author: G. Knizia

 Molecular orbitals read from record     2200.2  Type=UKS/ALPHA (state 1.1)
 Fock matrix read from record            2200.2  Type=UKS/TOTAL (state 1.1)
 Orbital energies read from record       2200.2  Type=UKS/ALPHA (state 1.1)
 Density matrix read from record         2200.2  Type=UKS/CHARGE (state 1.1)

 Number of core orbitals:           6 (   6 )
 Number of closed-shell orbitals:  19 (  19 )

 Basis set MINAO-AUTO-PP generated.      Number of basis functions:   42 

 Polarized AO type:                A = (O Ot + (1-O)(1-Ot)) P12
 Orthogonalization method:         Symmetric (Loewdin)
 Localization functional:          L = sum[A,i] <i|n_A|i>^4 -> max

 Localization group 1:  25 orbitals, occupancy  2.000
 Iterative localization: IB/PM,    7 iter; Final gradient 0.11E-08

 Bond order analysis:       [THRPRINT= 0.020]

   CEN ATOM   CEN ATOM     WIBERG.BO      RENORM.BO
     1   C  -   2   C       0.994224       0.991479
     1   C  -   5   H       0.970041       0.989671
     1   C  -   6   H       0.966753       0.986141
     1   C  -   7   H       0.966753       0.986141

     2   C  -   1   C       0.994224       0.991479
     2   C  -  12   C       0.991550       0.969005
     2   C  -  11   C       0.991550       0.969005
     2   C  -   3   O       0.965379       0.954539

     3   O  -   4   C       1.019395       1.015691
     3   O  -   2   C       0.965379       0.954539
     3   O  -   9   H       0.029487       0.017272
     3   O  -  10   H       0.029487       0.017272
     3   O  -  11   C       0.023260       0.012305
     3   O  -  12   C       0.023260       0.012305

     4   C  -   3   O       1.019395       1.015691
     4   C  -   8   H       0.958799       0.974246
     4   C  -   9   H       0.957008       0.945683
     4   C  -  10   H       0.957008       0.945683

     5   H  -   1   C       0.970041       0.989671

     6   H  -   1   C       0.966753       0.986141

     7   H  -   1   C       0.966753       0.986141

     8   H  -   4   C       0.958799       0.974246

     9   H  -   4   C       0.957008       0.945683
     9   H  -   3   O       0.029487       0.017272

    10   H  -   4   C       0.957008       0.945683
    10   H  -   3   O       0.029487       0.017272

    11   C  -   2   C       0.991550       0.969005
    11   C  -  17   H       0.968777       0.985136
    11   C  -  15   H       0.967559       0.988850
    11   C  -  13   H       0.967353       0.986028
    11   C  -   3   O       0.023260       0.012305

    12   C  -   2   C       0.991550       0.969005
    12   C  -  18   H       0.968777       0.985136
    12   C  -  16   H       0.967559       0.988850
    12   C  -  14   H       0.967353       0.986028
    12   C  -   3   O       0.023260       0.012305

    13   H  -  11   C       0.967353       0.986028

    14   H  -  12   C       0.967353       0.986028

    15   H  -  11   C       0.967559       0.988850

    16   H  -  12   C       0.967559       0.988850

    17   H  -  11   C       0.968777       0.985136

    18   H  -  12   C       0.968777       0.985136


 Valency analysis:

   CEN ATOM   TOT.VALENCE
     1   C       3.947783
     2   C       3.969432
     3   O       2.144808
     4   C       3.914535
     5   H       0.985224
     6   H       0.983712
     7   H       0.983712
     8   H       0.983084
     9   H       0.989467
    10   H       0.989467
    11   C       3.949036
    12   C       3.949036
    13   H       0.984300
    14   H       0.984300
    15   H       0.984315
    16   H       0.984315
    17   H       0.986025
    18   H       0.986025

 Total charge composition:

   CEN ATOM         s          p       ELECTRONS ->P.CHARGE
     1   C       3.02385    3.34277      6.36663   -0.36663
     2   C       2.96538    2.88853      5.85390    0.14610
     3   O       3.67863    4.56821      8.24684   -0.24684
     4   C       3.02554    3.19975      6.22528   -0.22528
     5   H       0.87844                 0.87844    0.12156
     6   H       0.87238                 0.87238    0.12762
     7   H       0.87238                 0.87238    0.12762
     8   H       0.86994                 0.86994    0.13006
     9   H       0.89737                 0.89737    0.10263
    10   H       0.89737                 0.89737    0.10263
    11   C       3.02434    3.35416      6.37850   -0.37850
    12   C       3.02434    3.35416      6.37850   -0.37850
    13   H       0.87470                 0.87470    0.12530
    14   H       0.87470                 0.87470    0.12530
    15   H       0.87476                 0.87476    0.12524
    16   H       0.87476                 0.87476    0.12524
    17   H       0.88178                 0.88178    0.11822
    18   H       0.88178                 0.88178    0.11822

 Total charge composition, AO contributions:

   CEN ATOM SHL      SPHERICAL COMPONENTS
     1   C  1s       1.99034
     1   C  2s       1.03352
     1   C  2p       1.14757    1.15582    1.03938

     2   C  1s       1.99193
     2   C  2s       0.97345
     2   C  2p       0.85462    1.01703    1.01688

     3   O  1s       1.99721
     3   O  2s       1.68141
     3   O  2p       1.31581    1.91948    1.33292

     4   C  1s       1.99098
     4   C  2s       1.03456
     4   C  2p       1.14516    1.15370    0.90089

     5   H  1s       0.87844

     6   H  1s       0.87238

     7   H  1s       0.87238

     8   H  1s       0.86994

     9   H  1s       0.89737

    10   H  1s       0.89737

    11   C  1s       1.99040
    11   C  2s       1.03393
    11   C  2p       1.13257    1.08552    1.13607

    12   C  1s       1.99040
    12   C  2s       1.03393
    12   C  2p       1.13257    1.08552    1.13607

    13   H  1s       0.87470

    14   H  1s       0.87470

    15   H  1s       0.87476

    16   H  1s       0.87476

    17   H  1s       0.88178

    18   H  1s       0.88178

 Summary of localized orbital composition:   [THRPRINT= 0.020]

   ORB  GRP  ORB.ENERGY      CENTERS/CHARGES
     1   1   -18.730492      O  3   2.000
     2   1   -10.007023      C  2   2.000
     3   1    -9.964819      C  4   2.000
     4   1    -9.916991      C 12   2.000
     5   1    -9.916991      C 11   2.000
     6   1    -9.916257      C  1   2.000
     7   1    -0.643979      O  3   1.168   C  4   0.823
     8   1    -0.609963      O  3   1.179   C  2   0.794   (other: 0.027)
     9   1    -0.542300      O  3   1.971   (other: 0.029)
    10   1    -0.511524      C 12   0.999   C  2   0.987
    11   1    -0.511524      C 11   0.999   C  2   0.987
    12   1    -0.510006      C  2   0.990   C  1   0.987   (other: 0.023)
    13   1    -0.454777      C  4   1.119   H  9   0.880
    14   1    -0.454777      C  4   1.119   H 10   0.880
    15   1    -0.453529      C  4   1.128   H  8   0.862
    16   1    -0.442087      C 11   1.121   H 15   0.868
    17   1    -0.442087      C 12   1.121   H 16   0.868
    18   1    -0.441551      C  1   1.117   H  5   0.872
    19   1    -0.441397      C 11   1.116   H 17   0.875
    20   1    -0.441397      C 12   1.116   H 18   0.875
    21   1    -0.437533      C 11   1.122   H 13   0.868
    22   1    -0.437533      C 12   1.122   H 14   0.868
    23   1    -0.434290      C  1   1.125   H  7   0.866
    24   1    -0.434290      C  1   1.125   H  6   0.866
    25   1    -0.152581      O  3   1.919   (other: 0.081)

 Localized orbitals saved to record      2200.2  (orbital set 4)


 **********************************************************************************************************************************
 DATASETS  * FILE   NREC   LENGTH (MB)   RECORD NAMES
              1      20       34.09       500      610      700      900      950      970     1000      129      960     1100   
                                          VAR    BASINP    GEOM    SYMINP    ZMAT    AOBASIS   BASIS     P2S    ABASIS      S 
                                         1400     1410     1200     1210     1080     1600     1650     1300     1700     1800   
                                           T        V       H0       H01     AOSYM     SMH    MOLCAS    ERIS     OPER     GRID   

              2       5        3.15       700     1000      520     1800     2200   
                                         GEOM     BASIS   MCVARS    GRID      UKS  

 PROGRAMS   *        TOTAL      IBBA       UKS       INT
 CPU TIMES  *        19.30      0.03     18.26      0.84
 REAL TIME  *        20.12 SEC
 DISK USED  *        42.19 MB      
 **********************************************************************************************************************************
 Molecular orbitals read from record     2200.2  Type=UKS/LOCAL(IBO)  
 Occupation numbers read from record     2200.2  Type=UKS/LOCAL(IBO)  
 Orbital energies read from record       2200.2  Type=UKS/LOCAL(IBO)  
 Redundancy group numbers read from rec  2200.2  Type=UKS/BETA (state 1.1)

 IBBA/STO-3G energy=      0.000000000000

        UKS-SCF 
   -268.68144259
 **********************************************************************************************************************************
 Molpro calculation terminated
